   4   4   0   0
  0.2228503E+02  0.7091058E-09  0.3545529E-09  0.3545529E-09  0.2000000E-14
   920.00000000000000     
  CAR 
 Al, 4 atoms                             
     12.25559414     -3.87985302  301      4.15882506      1.00000000
     -3.880  0.0000E+00  0.0000E+00
     -3.826  0.0000E+00  0.0000E+00
     -3.772  0.3241E-02  0.1743E-03
     -3.718  0.9131E-02  0.6654E-03
     -3.665  0.1200E-01  0.1311E-02
     -3.611  0.2363E-01  0.2582E-02
     -3.557  0.4649E-01  0.5083E-02
     -3.503  0.9128E-01  0.9992E-02
     -3.450  0.1786E+00  0.1960E-01
     -3.396  0.3470E+00  0.3826E-01
     -3.342  0.6650E+00  0.7403E-01
     -3.288  0.1242E+01  0.1408E+00
     -3.234  0.2211E+01  0.2598E+00
     -3.181  0.3622E+01  0.4546E+00
     -3.127  0.5193E+01  0.7339E+00
     -3.073  0.6181E+01  0.1066E+01
     -3.019  0.5919E+01  0.1385E+01
     -2.966  0.4598E+01  0.1632E+01
     -2.912  0.3024E+01  0.1795E+01
     -2.858  0.1778E+01  0.1890E+01
     -2.804  0.9765E+00  0.1943E+01
     -2.750  0.5165E+00  0.1971E+01
     -2.697  0.2678E+00  0.1985E+01
     -2.643  0.1374E+00  0.1992E+01
     -2.589  0.7010E-01  0.1996E+01
     -2.535  0.3567E-01  0.1998E+01
     -2.481  0.1813E-01  0.1999E+01
     -2.428  0.0000E+00  0.2000E+01
     -2.374  0.0000E+00  0.2000E+01
     -2.320  0.0000E+00  0.2000E+01
     -2.266  0.0000E+00  0.2000E+01
     -2.213  0.0000E+00  0.2000E+01
     -2.159  0.7713E-02  0.2000E+01
     -2.105  0.7484E-02  0.2001E+01
     -2.051  0.1474E-01  0.2002E+01
     -1.997  0.2902E-01  0.2003E+01
     -1.944  0.5705E-01  0.2006E+01
     -1.890  0.1119E+00  0.2012E+01
     -1.836  0.2186E+00  0.2024E+01
     -1.782  0.4231E+00  0.2047E+01
     -1.728  0.8055E+00  0.2090E+01
     -1.675  0.1486E+01  0.2170E+01
     -1.621  0.2587E+01  0.2309E+01
     -1.567  0.4086E+01  0.2529E+01
     -1.513  0.5561E+01  0.2828E+01
     -1.460  0.6217E+01  0.3162E+01
     -1.406  0.5596E+01  0.3463E+01
     -1.352  0.4133E+01  0.3686E+01
     -1.298  0.2626E+01  0.3827E+01
     -1.244  0.1512E+01  0.3908E+01
     -1.191  0.8206E+00  0.3952E+01
     -1.137  0.4314E+00  0.3976E+01
     -1.083  0.2229E+00  0.3987E+01
     -1.029  0.1142E+00  0.3994E+01
     -0.975  0.5820E-01  0.3997E+01
     -0.922  0.2960E-01  0.3998E+01
     -0.868  0.1504E-01  0.3999E+01
     -0.814  0.0000E+00  0.4000E+01
     -0.760  0.0000E+00  0.4000E+01
     -0.707  0.0000E+00  0.4000E+01
     -0.653  0.0000E+00  0.4000E+01
     -0.599  0.0000E+00  0.4000E+01
     -0.545  0.0000E+00  0.4000E+01
     -0.491  0.0000E+00  0.4000E+01
     -0.438  0.0000E+00  0.4000E+01
     -0.384  0.0000E+00  0.4000E+01
     -0.330  0.0000E+00  0.4000E+01
     -0.276  0.0000E+00  0.4000E+01
     -0.222  0.0000E+00  0.4000E+01
     -0.169  0.0000E+00  0.4000E+01
     -0.115  0.0000E+00  0.4000E+01
     -0.061  0.0000E+00  0.4000E+01
     -0.007  0.0000E+00  0.4000E+01
      0.046  0.0000E+00  0.4000E+01
      0.100  0.0000E+00  0.4000E+01
      0.154  0.0000E+00  0.4000E+01
      0.208  0.0000E+00  0.4000E+01
      0.262  0.0000E+00  0.4000E+01
      0.315  0.0000E+00  0.4000E+01
      0.369  0.0000E+00  0.4000E+01
      0.423  0.0000E+00  0.4000E+01
      0.477  0.0000E+00  0.4000E+01
      0.531  0.0000E+00  0.4000E+01
      0.584  0.0000E+00  0.4000E+01
      0.638  0.0000E+00  0.4000E+01
      0.692  0.0000E+00  0.4000E+01
      0.746  0.0000E+00  0.4000E+01
      0.799  0.0000E+00  0.4000E+01
      0.853  0.0000E+00  0.4000E+01
      0.907  0.0000E+00  0.4000E+01
      0.961  0.0000E+00  0.4000E+01
      1.015  0.0000E+00  0.4000E+01
      1.068  0.0000E+00  0.4000E+01
      1.122  0.0000E+00  0.4000E+01
      1.176  0.0000E+00  0.4000E+01
      1.230  0.3018E-02  0.4000E+01
      1.283  0.5820E-02  0.4000E+01
      1.337  0.1062E-01  0.4001E+01
      1.391  0.2078E-01  0.4002E+01
      1.445  0.3892E-01  0.4004E+01
      1.499  0.7631E-01  0.4008E+01
      1.552  0.1489E+00  0.4016E+01
      1.606  0.2876E+00  0.4032E+01
      1.660  0.5457E+00  0.4061E+01
      1.714  0.1001E+01  0.4115E+01
      1.768  0.1734E+01  0.4208E+01
      1.821  0.2746E+01  0.4356E+01
      1.875  0.3856E+01  0.4563E+01
      1.929  0.4734E+01  0.4818E+01
      1.983  0.5122E+01  0.5094E+01
      2.036  0.4925E+01  0.5358E+01
      2.090  0.4192E+01  0.5584E+01
      2.144  0.3137E+01  0.5753E+01
      2.198  0.2091E+01  0.5865E+01
      2.252  0.1310E+01  0.5935E+01
      2.305  0.8669E+00  0.5982E+01
      2.359  0.7434E+00  0.6022E+01
      2.413  0.9202E+00  0.6072E+01
      2.467  0.1463E+01  0.6150E+01
      2.521  0.2451E+01  0.6282E+01
      2.574  0.3894E+01  0.6492E+01
      2.628  0.5444E+01  0.6785E+01
      2.682  0.6349E+01  0.7127E+01
      2.736  0.6075E+01  0.7454E+01
      2.789  0.4977E+01  0.7721E+01
      2.843  0.3935E+01  0.7933E+01
      2.897  0.3558E+01  0.8124E+01
      2.951  0.3935E+01  0.8336E+01
      3.005  0.4738E+01  0.8591E+01
      3.058  0.5417E+01  0.8882E+01
      3.112  0.5552E+01  0.9181E+01
      3.166  0.5015E+01  0.9450E+01
      3.220  0.3939E+01  0.9662E+01
      3.274  0.2691E+01  0.9807E+01
      3.327  0.1631E+01  0.9896E+01
      3.381  0.9184E+00  0.9945E+01
      3.435  0.4971E+00  0.9972E+01
      3.489  0.2711E+00  0.9986E+01
      3.542  0.1497E+00  0.9994E+01
      3.596  0.1066E+00  0.1000E+02
      3.650  0.1024E+00  0.1001E+02
      3.704  0.1534E+00  0.1001E+02
      3.758  0.2793E+00  0.1003E+02
      3.811  0.5286E+00  0.1006E+02
      3.865  0.1014E+01  0.1011E+02
      3.919  0.1898E+01  0.1021E+02
      3.973  0.3397E+01  0.1040E+02
      4.027  0.5638E+01  0.1070E+02
      4.080  0.8340E+01  0.1115E+02
      4.134  0.1059E+02  0.1172E+02
      4.188  0.1131E+02  0.1233E+02
      4.242  0.1023E+02  0.1288E+02
      4.295  0.7980E+01  0.1331E+02
      4.349  0.5467E+01  0.1360E+02
      4.403  0.3363E+01  0.1378E+02
      4.457  0.1912E+01  0.1388E+02
      4.511  0.1033E+01  0.1394E+02
      4.564  0.5422E+00  0.1397E+02
      4.618  0.2800E+00  0.1398E+02
      4.672  0.1433E+00  0.1399E+02
      4.726  0.7007E-01  0.1400E+02
      4.780  0.2513E-01  0.1400E+02
      4.833  0.1072E-01  0.1400E+02
      4.887  0.3041E-02  0.1400E+02
      4.941  0.0000E+00  0.1400E+02
      4.995  0.0000E+00  0.1400E+02
      5.048  0.0000E+00  0.1400E+02
      5.102  0.0000E+00  0.1400E+02
      5.156  0.0000E+00  0.1400E+02
      5.210  0.0000E+00  0.1400E+02
      5.264  0.0000E+00  0.1400E+02
      5.317  0.5012E-02  0.1400E+02
      5.371  0.4863E-02  0.1400E+02
      5.425  0.9576E-02  0.1400E+02
      5.479  0.2185E-01  0.1400E+02
      5.532  0.4248E-01  0.1400E+02
      5.586  0.8073E-01  0.1401E+02
      5.640  0.1574E+00  0.1402E+02
      5.694  0.3037E+00  0.1403E+02
      5.748  0.5746E+00  0.1406E+02
      5.801  0.1049E+01  0.1412E+02
      5.855  0.1796E+01  0.1422E+02
      5.909  0.2785E+01  0.1437E+02
      5.963  0.3771E+01  0.1457E+02
      6.017  0.4418E+01  0.1481E+02
      6.070  0.4622E+01  0.1506E+02
      6.124  0.4498E+01  0.1530E+02
      6.178  0.4067E+01  0.1552E+02
      6.232  0.3302E+01  0.1569E+02
      6.285  0.2354E+01  0.1582E+02
      6.339  0.1488E+01  0.1590E+02
      6.393  0.8590E+00  0.1595E+02
      6.447  0.4681E+00  0.1597E+02
      6.501  0.2467E+00  0.1599E+02
      6.554  0.1277E+00  0.1599E+02
      6.608  0.6556E-01  0.1600E+02
      6.662  0.3290E-01  0.1600E+02
      6.716  0.2036E-01  0.1600E+02
      6.770  0.1511E-01  0.1600E+02
      6.823  0.1887E-01  0.1600E+02
      6.877  0.3884E-01  0.1600E+02
      6.931  0.7382E-01  0.1601E+02
      6.985  0.1422E+00  0.1602E+02
      7.038  0.2684E+00  0.1603E+02
      7.092  0.4869E+00  0.1606E+02
      7.146  0.8241E+00  0.1610E+02
      7.200  0.1248E+01  0.1617E+02
      7.254  0.1608E+01  0.1625E+02
      7.307  0.1732E+01  0.1635E+02
      7.361  0.1631E+01  0.1644E+02
      7.415  0.1514E+01  0.1652E+02
      7.469  0.1565E+01  0.1660E+02
      7.523  0.1746E+01  0.1669E+02
      7.576  0.1855E+01  0.1679E+02
      7.630  0.1764E+01  0.1689E+02
      7.684  0.1589E+01  0.1697E+02
      7.738  0.1583E+01  0.1706E+02
      7.791  0.1880E+01  0.1716E+02
      7.845  0.2438E+01  0.1729E+02
      7.899  0.3083E+01  0.1746E+02
      7.953  0.3668E+01  0.1766E+02
      8.007  0.4086E+01  0.1788E+02
      8.060  0.4174E+01  0.1810E+02
      8.114  0.3916E+01  0.1831E+02
      8.168  0.3634E+01  0.1851E+02
      8.222  0.3740E+01  0.1871E+02
      8.276  0.4272E+01  0.1894E+02
      8.329  0.4805E+01  0.1920E+02
      8.383  0.4833E+01  0.1946E+02
      8.437  0.4277E+01  0.1969E+02
      8.491  0.3541E+01  0.1988E+02
      8.544  0.3137E+01  0.2004E+02
      8.598  0.3362E+01  0.2023E+02
      8.652  0.4171E+01  0.2045E+02
      8.706  0.5198E+01  0.2073E+02
      8.760  0.5859E+01  0.2105E+02
      8.813  0.5665E+01  0.2135E+02
      8.867  0.4608E+01  0.2160E+02
      8.921  0.3200E+01  0.2177E+02
      8.975  0.1967E+01  0.2188E+02
      9.029  0.1126E+01  0.2194E+02
      9.082  0.6441E+00  0.2197E+02
      9.136  0.4128E+00  0.2199E+02
      9.190  0.3593E+00  0.2201E+02
      9.244  0.4592E+00  0.2204E+02
      9.297  0.7285E+00  0.2208E+02
      9.351  0.1191E+01  0.2214E+02
      9.405  0.1825E+01  0.2224E+02
      9.459  0.2507E+01  0.2238E+02
      9.513  0.3106E+01  0.2254E+02
      9.566  0.3562E+01  0.2273E+02
      9.620  0.3763E+01  0.2294E+02
      9.674  0.3489E+01  0.2312E+02
      9.728  0.2743E+01  0.2327E+02
      9.781  0.1848E+01  0.2337E+02
      9.835  0.1108E+01  0.2343E+02
      9.889  0.6167E+00  0.2346E+02
      9.943  0.3287E+00  0.2348E+02
      9.997  0.1711E+00  0.2349E+02
     10.050  0.8797E-01  0.2350E+02
     10.104  0.4256E-01  0.2350E+02
     10.158  0.2168E-01  0.2350E+02
     10.212  0.1102E-01  0.2350E+02
     10.266  0.3336E-02  0.2350E+02
     10.319  0.0000E+00  0.2350E+02
     10.373  0.0000E+00  0.2350E+02
     10.427  0.0000E+00  0.2350E+02
     10.481  0.0000E+00  0.2350E+02
     10.534  0.0000E+00  0.2350E+02
     10.588  0.0000E+00  0.2350E+02
     10.642  0.0000E+00  0.2350E+02
     10.696  0.0000E+00  0.2350E+02
     10.750  0.0000E+00  0.2350E+02
     10.803  0.2268E-02  0.2350E+02
     10.857  0.2201E-02  0.2350E+02
     10.911  0.4335E-02  0.2350E+02
     10.965  0.8531E-02  0.2350E+02
     11.019  0.1677E-01  0.2350E+02
     11.072  0.3287E-01  0.2350E+02
     11.126  0.6410E-01  0.2351E+02
     11.180  0.1238E+00  0.2351E+02
     11.234  0.2344E+00  0.2353E+02
     11.287  0.4281E+00  0.2355E+02
     11.341  0.7325E+00  0.2359E+02
     11.395  0.1124E+01  0.2365E+02
     11.449  0.1465E+01  0.2373E+02
     11.503  0.1552E+01  0.2381E+02
     11.556  0.1321E+01  0.2388E+02
     11.610  0.9311E+00  0.2393E+02
     11.664  0.5723E+00  0.2396E+02
     11.718  0.3227E+00  0.2398E+02
     11.772  0.1732E+00  0.2399E+02
     11.825  0.9046E-01  0.2399E+02
     11.879  0.4659E-01  0.2400E+02
     11.933  0.2382E-01  0.2400E+02
     11.987  0.1213E-01  0.2400E+02
     12.040  0.6169E-02  0.2400E+02
     12.094  0.3133E-02  0.2400E+02
     12.148  0.0000E+00  0.2400E+02
     12.202  0.0000E+00  0.2400E+02
     12.256  0.0000E+00  0.2400E+02
     10.40926684     -3.82052385  301      4.03610748      1.00000000
     -3.821  0.0000E+00  0.0000E+00
     -3.773  0.0000E+00  0.0000E+00
     -3.726  0.0000E+00  0.0000E+00
     -3.678  0.1112E-01  0.5274E-03
     -3.631  0.9103E-02  0.9592E-03
     -3.583  0.1655E-01  0.1744E-02
     -3.536  0.3007E-01  0.3171E-02
     -3.488  0.5459E-01  0.5760E-02
     -3.441  0.9894E-01  0.1045E-01
     -3.394  0.1788E+00  0.1893E-01
     -3.346  0.3214E+00  0.3418E-01
     -3.299  0.5721E+00  0.6131E-01
     -3.251  0.1001E+01  0.1088E+00
     -3.204  0.1701E+01  0.1895E+00
     -3.156  0.2748E+01  0.3198E+00
     -3.109  0.4102E+01  0.5144E+00
     -3.062  0.5449E+01  0.7728E+00
     -3.014  0.6219E+01  0.1068E+01
     -2.967  0.5979E+01  0.1351E+01
     -2.919  0.4871E+01  0.1582E+01
     -2.872  0.3462E+01  0.1747E+01
     -2.824  0.2228E+01  0.1852E+01
     -2.777  0.1343E+01  0.1916E+01
     -2.730  0.7787E+00  0.1953E+01
     -2.682  0.4410E+00  0.1974E+01
     -2.635  0.2465E+00  0.1986E+01
     -2.587  0.1368E+00  0.1992E+01
     -2.540  0.7556E-01  0.1996E+01
     -2.492  0.4165E-01  0.1998E+01
     -2.445  0.2293E-01  0.1999E+01
     -2.398  0.1262E-01  0.1999E+01
     -2.350  0.0000E+00  0.2000E+01
     -2.303  0.1077E-01  0.2001E+01
     -2.255  0.8819E-02  0.2001E+01
     -2.208  0.1603E-01  0.2002E+01
     -2.160  0.2913E-01  0.2003E+01
     -2.113  0.5289E-01  0.2006E+01
     -2.066  0.9587E-01  0.2010E+01
     -2.018  0.1733E+00  0.2018E+01
     -1.971  0.3115E+00  0.2033E+01
     -1.923  0.5548E+00  0.2059E+01
     -1.876  0.9718E+00  0.2106E+01
     -1.828  0.1654E+01  0.2184E+01
     -1.781  0.2680E+01  0.2311E+01
     -1.733  0.4018E+01  0.2502E+01
     -1.686  0.5374E+01  0.2757E+01
     -1.639  0.6189E+01  0.3050E+01
     -1.591  0.6012E+01  0.3335E+01
     -1.544  0.4948E+01  0.3570E+01
     -1.496  0.3545E+01  0.3738E+01
     -1.449  0.2295E+01  0.3847E+01
     -1.401  0.1389E+01  0.3913E+01
     -1.354  0.8071E+00  0.3951E+01
     -1.307  0.4577E+00  0.3973E+01
     -1.259  0.2560E+00  0.3985E+01
     -1.212  0.1421E+00  0.3992E+01
     -1.164  0.7853E-01  0.3995E+01
     -1.117  0.4330E-01  0.3997E+01
     -1.069  0.2384E-01  0.3999E+01
     -1.022  0.1312E-01  0.3999E+01
     -0.975  0.0000E+00  0.4000E+01
     -0.927  0.0000E+00  0.4000E+01
     -0.880  0.0000E+00  0.4000E+01
     -0.832  0.0000E+00  0.4000E+01
     -0.785  0.0000E+00  0.4000E+01
     -0.737  0.0000E+00  0.4000E+01
     -0.690  0.0000E+00  0.4000E+01
     -0.643  0.0000E+00  0.4000E+01
     -0.595  0.0000E+00  0.4000E+01
     -0.548  0.0000E+00  0.4000E+01
     -0.500  0.0000E+00  0.4000E+01
     -0.453  0.0000E+00  0.4000E+01
     -0.405  0.0000E+00  0.4000E+01
     -0.358  0.0000E+00  0.4000E+01
     -0.311  0.0000E+00  0.4000E+01
     -0.263  0.0000E+00  0.4000E+01
     -0.216  0.0000E+00  0.4000E+01
     -0.168  0.0000E+00  0.4000E+01
     -0.121  0.0000E+00  0.4000E+01
     -0.073  0.0000E+00  0.4000E+01
     -0.026  0.0000E+00  0.4000E+01
      0.022  0.0000E+00  0.4000E+01
      0.069  0.0000E+00  0.4000E+01
      0.116  0.0000E+00  0.4000E+01
      0.164  0.0000E+00  0.4000E+01
      0.211  0.0000E+00  0.4000E+01
      0.259  0.0000E+00  0.4000E+01
      0.306  0.0000E+00  0.4000E+01
      0.354  0.0000E+00  0.4000E+01
      0.401  0.0000E+00  0.4000E+01
      0.448  0.0000E+00  0.4000E+01
      0.496  0.0000E+00  0.4000E+01
      0.543  0.0000E+00  0.4000E+01
      0.591  0.0000E+00  0.4000E+01
      0.638  0.0000E+00  0.4000E+01
      0.686  0.0000E+00  0.4000E+01
      0.733  0.0000E+00  0.4000E+01
      0.780  0.0000E+00  0.4000E+01
      0.828  0.0000E+00  0.4000E+01
      0.875  0.0000E+00  0.4000E+01
      0.923  0.0000E+00  0.4000E+01
      0.970  0.0000E+00  0.4000E+01
      1.018  0.0000E+00  0.4000E+01
      1.065  0.0000E+00  0.4000E+01
      1.112  0.0000E+00  0.4000E+01
      1.160  0.0000E+00  0.4000E+01
      1.207  0.0000E+00  0.4000E+01
      1.255  0.0000E+00  0.4000E+01
      1.302  0.0000E+00  0.4000E+01
      1.350  0.2720E-02  0.4000E+01
      1.397  0.4519E-02  0.4000E+01
      1.444  0.8968E-02  0.4001E+01
      1.492  0.1570E-01  0.4002E+01
      1.539  0.2609E-01  0.4003E+01
      1.587  0.4734E-01  0.4005E+01
      1.634  0.8572E-01  0.4009E+01
      1.682  0.1547E+00  0.4016E+01
      1.729  0.2773E+00  0.4030E+01
      1.777  0.4914E+00  0.4053E+01
      1.824  0.8536E+00  0.4093E+01
      1.871  0.1434E+01  0.4161E+01
      1.919  0.2287E+01  0.4270E+01
      1.966  0.3378E+01  0.4430E+01
      2.014  0.4526E+01  0.4645E+01
      2.061  0.5384E+01  0.4900E+01
      2.109  0.5649E+01  0.5168E+01
      2.156  0.5226E+01  0.5416E+01
      2.203  0.4292E+01  0.5620E+01
      2.251  0.3186E+01  0.5771E+01
      2.298  0.2224E+01  0.5876E+01
      2.346  0.1578E+01  0.5951E+01
      2.393  0.1301E+01  0.6013E+01
      2.441  0.1390E+01  0.6079E+01
      2.488  0.1880E+01  0.6168E+01
      2.535  0.2781E+01  0.6300E+01
      2.583  0.4040E+01  0.6491E+01
      2.630  0.5359E+01  0.6746E+01
      2.678  0.6213E+01  0.7040E+01
      2.725  0.6175E+01  0.7334E+01
      2.773  0.5345E+01  0.7587E+01
      2.820  0.4248E+01  0.7789E+01
      2.867  0.3439E+01  0.7952E+01
      2.915  0.3213E+01  0.8105E+01
      2.962  0.3619E+01  0.8276E+01
      3.010  0.4498E+01  0.8490E+01
      3.057  0.5469E+01  0.8749E+01
      3.105  0.6029E+01  0.9035E+01
      3.152  0.5829E+01  0.9312E+01
      3.200  0.4907E+01  0.9544E+01
      3.247  0.3637E+01  0.9717E+01
      3.294  0.2431E+01  0.9833E+01
      3.342  0.1506E+01  0.9905E+01
      3.389  0.8979E+00  0.9947E+01
      3.437  0.5334E+00  0.9972E+01
      3.484  0.3376E+00  0.9989E+01
      3.532  0.2491E+00  0.1000E+02
      3.579  0.2520E+00  0.1001E+02
      3.626  0.3449E+00  0.1003E+02
      3.674  0.5580E+00  0.1006E+02
      3.721  0.9516E+00  0.1010E+02
      3.769  0.1635E+01  0.1018E+02
      3.816  0.2736E+01  0.1031E+02
      3.864  0.4339E+01  0.1051E+02
      3.911  0.6353E+01  0.1082E+02
      3.958  0.8392E+01  0.1121E+02
      4.006  0.9897E+01  0.1168E+02
      4.053  0.1048E+02  0.1218E+02
      4.101  0.1006E+02  0.1266E+02
      4.148  0.8768E+01  0.1307E+02
      4.196  0.6893E+01  0.1340E+02
      4.243  0.4898E+01  0.1363E+02
      4.290  0.3190E+01  0.1378E+02
      4.338  0.1948E+01  0.1388E+02
      4.385  0.1140E+01  0.1393E+02
      4.433  0.6494E+00  0.1396E+02
      4.480  0.3642E+00  0.1398E+02
      4.528  0.2025E+00  0.1399E+02
      4.575  0.1120E+00  0.1399E+02
      4.622  0.5549E-01  0.1400E+02
      4.670  0.2881E-01  0.1400E+02
      4.717  0.1069E-01  0.1400E+02
      4.765  0.5883E-02  0.1400E+02
      4.812  0.0000E+00  0.1400E+02
      4.860  0.0000E+00  0.1400E+02
      4.907  0.0000E+00  0.1400E+02
      4.955  0.0000E+00  0.1400E+02
      5.002  0.0000E+00  0.1400E+02
      5.049  0.0000E+00  0.1400E+02
      5.097  0.0000E+00  0.1400E+02
      5.144  0.0000E+00  0.1400E+02
      5.192  0.0000E+00  0.1400E+02
      5.239  0.0000E+00  0.1400E+02
      5.287  0.2232E-02  0.1400E+02
      5.334  0.4647E-02  0.1400E+02
      5.381  0.5631E-02  0.1400E+02
      5.429  0.1281E-01  0.1400E+02
      5.476  0.2391E-01  0.1400E+02
      5.524  0.4019E-01  0.1400E+02
      5.571  0.7282E-01  0.1401E+02
      5.619  0.1315E+00  0.1401E+02
      5.666  0.2360E+00  0.1403E+02
      5.713  0.4193E+00  0.1405E+02
      5.761  0.7312E+00  0.1408E+02
      5.808  0.1236E+01  0.1414E+02
      5.856  0.1987E+01  0.1423E+02
      5.903  0.2965E+01  0.1437E+02
      5.951  0.4008E+01  0.1456E+02
      5.998  0.4846E+01  0.1479E+02
      6.045  0.5261E+01  0.1504E+02
      6.093  0.5174E+01  0.1529E+02
      6.140  0.4599E+01  0.1551E+02
      6.188  0.3661E+01  0.1568E+02
      6.235  0.2614E+01  0.1580E+02
      6.283  0.1704E+01  0.1588E+02
      6.330  0.1040E+01  0.1593E+02
      6.377  0.6077E+00  0.1596E+02
      6.425  0.3459E+00  0.1598E+02
      6.472  0.1939E+00  0.1599E+02
      6.520  0.1078E+00  0.1599E+02
      6.567  0.5961E-01  0.1600E+02
      6.615  0.3072E-01  0.1600E+02
      6.662  0.1521E-01  0.1600E+02
      6.710  0.8372E-02  0.1600E+02
      6.757  0.2019E-02  0.1600E+02
      6.804  0.1653E-02  0.1600E+02
      6.852  0.4997E-02  0.1600E+02
      6.899  0.7094E-02  0.1600E+02
      6.947  0.1289E-01  0.1600E+02
      6.994  0.2339E-01  0.1600E+02
      7.042  0.4238E-01  0.1600E+02
      7.089  0.7654E-01  0.1601E+02
      7.136  0.1374E+00  0.1601E+02
      7.184  0.2441E+00  0.1603E+02
      7.231  0.4284E+00  0.1605E+02
      7.279  0.7218E+00  0.1608E+02
      7.326  0.1160E+01  0.1614E+02
      7.374  0.1731E+01  0.1622E+02
      7.421  0.2325E+01  0.1633E+02
      7.468  0.2772E+01  0.1646E+02
      7.516  0.2915E+01  0.1660E+02
      7.563  0.2713E+01  0.1673E+02
      7.611  0.2278E+01  0.1683E+02
      7.658  0.1817E+01  0.1692E+02
      7.706  0.1515E+01  0.1699E+02
      7.753  0.1477E+01  0.1706E+02
      7.800  0.1712E+01  0.1714E+02
      7.848  0.2138E+01  0.1725E+02
      7.895  0.2612E+01  0.1737E+02
      7.943  0.2994E+01  0.1751E+02
      7.990  0.3252E+01  0.1767E+02
      8.038  0.3412E+01  0.1783E+02
      8.085  0.3514E+01  0.1799E+02
      8.133  0.3638E+01  0.1817E+02
      8.180  0.3809E+01  0.1835E+02
      8.227  0.4014E+01  0.1854E+02
      8.275  0.4210E+01  0.1874E+02
      8.322  0.4335E+01  0.1894E+02
      8.370  0.4326E+01  0.1915E+02
      8.417  0.4204E+01  0.1935E+02
      8.465  0.4116E+01  0.1954E+02
      8.512  0.4221E+01  0.1974E+02
      8.559  0.4577E+01  0.1996E+02
      8.607  0.5169E+01  0.2021E+02
      8.654  0.5895E+01  0.2049E+02
      8.702  0.6482E+01  0.2079E+02
      8.749  0.6533E+01  0.2110E+02
      8.797  0.5854E+01  0.2138E+02
      8.844  0.4640E+01  0.2160E+02
      8.891  0.3296E+01  0.2176E+02
      8.939  0.2155E+01  0.2186E+02
      8.986  0.1346E+01  0.2192E+02
      9.034  0.8485E+00  0.2196E+02
      9.081  0.6012E+00  0.2199E+02
      9.129  0.5496E+00  0.2202E+02
      9.176  0.6776E+00  0.2205E+02
      9.223  0.1016E+01  0.2210E+02
      9.271  0.1609E+01  0.2218E+02
      9.318  0.2478E+01  0.2229E+02
      9.366  0.3527E+01  0.2246E+02
      9.413  0.4501E+01  0.2267E+02
      9.461  0.5056E+01  0.2291E+02
      9.508  0.5032E+01  0.2315E+02
      9.555  0.4556E+01  0.2337E+02
      9.603  0.3865E+01  0.2355E+02
      9.650  0.3097E+01  0.2370E+02
      9.698  0.2311E+01  0.2381E+02
      9.745  0.1589E+01  0.2388E+02
      9.793  0.1013E+01  0.2393E+02
      9.840  0.6103E+00  0.2396E+02
      9.888  0.3541E+00  0.2398E+02
      9.935  0.2007E+00  0.2399E+02
      9.982  0.1123E+00  0.2399E+02
     10.030  0.6232E-01  0.2400E+02
     10.077  0.3019E-01  0.2400E+02
     10.125  0.1414E-01  0.2400E+02
     10.172  0.7788E-02  0.2400E+02
     10.220  0.4286E-02  0.2400E+02
     10.267  0.0000E+00  0.2400E+02
     10.314  0.0000E+00  0.2400E+02
     10.362  0.0000E+00  0.2400E+02
     10.409  0.0000E+00  0.2400E+02
     10.44017590     -3.74383649  301      4.01334629      1.00000000
     -3.744  0.0000E+00  0.0000E+00
     -3.697  0.0000E+00  0.0000E+00
     -3.649  0.0000E+00  0.0000E+00
     -3.602  0.1141E-01  0.5395E-03
     -3.555  0.9301E-02  0.9792E-03
     -3.507  0.1688E-01  0.1777E-02
     -3.460  0.3061E-01  0.3224E-02
     -3.413  0.5545E-01  0.5846E-02
     -3.366  0.1003E+00  0.1059E-01
     -3.318  0.1809E+00  0.1914E-01
     -3.271  0.3245E+00  0.3448E-01
     -3.224  0.5765E+00  0.6174E-01
     -3.176  0.1007E+01  0.1093E+00
     -3.129  0.1707E+01  0.1900E+00
     -3.082  0.2753E+01  0.3202E+00
     -3.035  0.4103E+01  0.5142E+00
     -2.987  0.5447E+01  0.7718E+00
     -2.940  0.6218E+01  0.1066E+01
     -2.893  0.5986E+01  0.1349E+01
     -2.846  0.4887E+01  0.1580E+01
     -2.798  0.3482E+01  0.1744E+01
     -2.751  0.2246E+01  0.1851E+01
     -2.704  0.1358E+01  0.1915E+01
     -2.656  0.7891E+00  0.1952E+01
     -2.609  0.4479E+00  0.1973E+01
     -2.562  0.2509E+00  0.1985E+01
     -2.515  0.1395E+00  0.1992E+01
     -2.467  0.7722E-01  0.1996E+01
     -2.420  0.4265E-01  0.1998E+01
     -2.373  0.2353E-01  0.1999E+01
     -2.325  0.2330E-01  0.2000E+01
     -2.278  0.8419E-02  0.2001E+01
     -2.231  0.1528E-01  0.2002E+01
     -2.184  0.2771E-01  0.2003E+01
     -2.136  0.5021E-01  0.2005E+01
     -2.089  0.9086E-01  0.2010E+01
     -2.042  0.1640E+00  0.2017E+01
     -1.994  0.2944E+00  0.2031E+01
     -1.947  0.5241E+00  0.2056E+01
     -1.900  0.9186E+00  0.2099E+01
     -1.853  0.1567E+01  0.2174E+01
     -1.805  0.2553E+01  0.2294E+01
     -1.758  0.3865E+01  0.2477E+01
     -1.711  0.5245E+01  0.2725E+01
     -1.664  0.6153E+01  0.3016E+01
     -1.616  0.6096E+01  0.3304E+01
     -1.569  0.5109E+01  0.3546E+01
     -1.522  0.3715E+01  0.3721E+01
     -1.474  0.2431E+01  0.3836E+01
     -1.427  0.1483E+01  0.3906E+01
     -1.380  0.8661E+00  0.3947E+01
     -1.333  0.4931E+00  0.3971E+01
     -1.285  0.2767E+00  0.3984E+01
     -1.238  0.1540E+00  0.3991E+01
     -1.191  0.8529E-01  0.3995E+01
     -1.143  0.4713E-01  0.3997E+01
     -1.096  0.2600E-01  0.3998E+01
     -1.049  0.1434E-01  0.3999E+01
     -1.002  0.0000E+00  0.4000E+01
     -0.954  0.0000E+00  0.4000E+01
     -0.907  0.0000E+00  0.4000E+01
     -0.860  0.0000E+00  0.4000E+01
     -0.812  0.0000E+00  0.4000E+01
     -0.765  0.0000E+00  0.4000E+01
     -0.718  0.0000E+00  0.4000E+01
     -0.671  0.0000E+00  0.4000E+01
     -0.623  0.0000E+00  0.4000E+01
     -0.576  0.0000E+00  0.4000E+01
     -0.529  0.0000E+00  0.4000E+01
     -0.482  0.0000E+00  0.4000E+01
     -0.434  0.0000E+00  0.4000E+01
     -0.387  0.0000E+00  0.4000E+01
     -0.340  0.0000E+00  0.4000E+01
     -0.292  0.0000E+00  0.4000E+01
     -0.245  0.0000E+00  0.4000E+01
     -0.198  0.0000E+00  0.4000E+01
     -0.151  0.0000E+00  0.4000E+01
     -0.103  0.0000E+00  0.4000E+01
     -0.056  0.0000E+00  0.4000E+01
     -0.009  0.0000E+00  0.4000E+01
      0.039  0.0000E+00  0.4000E+01
      0.086  0.0000E+00  0.4000E+01
      0.133  0.0000E+00  0.4000E+01
      0.180  0.0000E+00  0.4000E+01
      0.228  0.0000E+00  0.4000E+01
      0.275  0.0000E+00  0.4000E+01
      0.322  0.0000E+00  0.4000E+01
      0.370  0.0000E+00  0.4000E+01
      0.417  0.0000E+00  0.4000E+01
      0.464  0.0000E+00  0.4000E+01
      0.511  0.0000E+00  0.4000E+01
      0.559  0.0000E+00  0.4000E+01
      0.606  0.0000E+00  0.4000E+01
      0.653  0.0000E+00  0.4000E+01
      0.700  0.0000E+00  0.4000E+01
      0.748  0.0000E+00  0.4000E+01
      0.795  0.0000E+00  0.4000E+01
      0.842  0.0000E+00  0.4000E+01
      0.890  0.0000E+00  0.4000E+01
      0.937  0.0000E+00  0.4000E+01
      0.984  0.0000E+00  0.4000E+01
      1.031  0.0000E+00  0.4000E+01
      1.079  0.0000E+00  0.4000E+01
      1.126  0.0000E+00  0.4000E+01
      1.173  0.0000E+00  0.4000E+01
      1.221  0.0000E+00  0.4000E+01
      1.268  0.0000E+00  0.4000E+01
      1.315  0.0000E+00  0.4000E+01
      1.362  0.0000E+00  0.4000E+01
      1.410  0.0000E+00  0.4000E+01
      1.457  0.7024E-02  0.4000E+01
      1.504  0.9160E-02  0.4001E+01
      1.552  0.1319E-01  0.4001E+01
      1.599  0.2392E-01  0.4003E+01
      1.646  0.4337E-01  0.4005E+01
      1.693  0.7850E-01  0.4008E+01
      1.741  0.1418E+00  0.4015E+01
      1.788  0.2549E+00  0.4027E+01
      1.835  0.4549E+00  0.4049E+01
      1.882  0.8006E+00  0.4086E+01
      1.930  0.1376E+01  0.4151E+01
      1.977  0.2270E+01  0.4259E+01
      2.024  0.3505E+01  0.4424E+01
      2.072  0.4908E+01  0.4657E+01
      2.119  0.5982E+01  0.4939E+01
      2.166  0.6204E+01  0.5233E+01
      2.213  0.5445E+01  0.5490E+01
      2.261  0.4135E+01  0.5686E+01
      2.308  0.2835E+01  0.5820E+01
      2.355  0.1867E+01  0.5908E+01
      2.403  0.1299E+01  0.5969E+01
      2.450  0.1102E+01  0.6021E+01
      2.497  0.1247E+01  0.6080E+01
      2.544  0.1748E+01  0.6163E+01
      2.592  0.2651E+01  0.6288E+01
      2.639  0.3916E+01  0.6474E+01
      2.686  0.5281E+01  0.6723E+01
      2.734  0.6229E+01  0.7018E+01
      2.781  0.6285E+01  0.7316E+01
      2.828  0.5514E+01  0.7577E+01
      2.875  0.4441E+01  0.7787E+01
      2.923  0.3653E+01  0.7959E+01
      2.970  0.3483E+01  0.8124E+01
      3.017  0.3992E+01  0.8313E+01
      3.064  0.4994E+01  0.8549E+01
      3.112  0.6008E+01  0.8833E+01
      3.159  0.6398E+01  0.9135E+01
      3.206  0.5828E+01  0.9411E+01
      3.254  0.4566E+01  0.9627E+01
      3.301  0.3160E+01  0.9776E+01
      3.348  0.2006E+01  0.9871E+01
      3.395  0.1205E+01  0.9929E+01
      3.443  0.7342E+00  0.9964E+01
      3.490  0.4677E+00  0.9986E+01
      3.537  0.3633E+00  0.1000E+02
      3.585  0.3854E+00  0.1002E+02
      3.632  0.5416E+00  0.1005E+02
      3.679  0.8774E+00  0.1009E+02
      3.726  0.1478E+01  0.1016E+02
      3.774  0.2449E+01  0.1027E+02
      3.821  0.3886E+01  0.1046E+02
      3.868  0.5705E+01  0.1073E+02
      3.916  0.7559E+01  0.1109E+02
      3.963  0.8972E+01  0.1151E+02
      4.010  0.9689E+01  0.1197E+02
      4.057  0.9745E+01  0.1243E+02
      4.105  0.9141E+01  0.1286E+02
      4.152  0.7809E+01  0.1323E+02
      4.199  0.5969E+01  0.1351E+02
      4.246  0.4106E+01  0.1371E+02
      4.294  0.2601E+01  0.1383E+02
      4.341  0.1558E+01  0.1390E+02
      4.388  0.9003E+00  0.1395E+02
      4.436  0.5096E+00  0.1397E+02
      4.483  0.2850E+00  0.1398E+02
      4.530  0.1583E+00  0.1399E+02
      4.577  0.8069E-01  0.1400E+02
      4.625  0.4272E-01  0.1400E+02
      4.672  0.2357E-01  0.1400E+02
      4.719  0.1026E-01  0.1400E+02
      4.767  0.0000E+00  0.1400E+02
      4.814  0.0000E+00  0.1400E+02
      4.861  0.0000E+00  0.1400E+02
      4.908  0.0000E+00  0.1400E+02
      4.956  0.0000E+00  0.1400E+02
      5.003  0.0000E+00  0.1400E+02
      5.050  0.0000E+00  0.1400E+02
      5.098  0.0000E+00  0.1400E+02
      5.145  0.0000E+00  0.1400E+02
      5.192  0.0000E+00  0.1400E+02
      5.239  0.0000E+00  0.1400E+02
      5.287  0.3350E-02  0.1400E+02
      5.334  0.2730E-02  0.1400E+02
      5.381  0.1067E-01  0.1400E+02
      5.428  0.1364E-01  0.1400E+02
      5.476  0.2749E-01  0.1400E+02
      5.523  0.4700E-01  0.1400E+02
      5.570  0.8486E-01  0.1401E+02
      5.618  0.1525E+00  0.1402E+02
      5.665  0.2719E+00  0.1403E+02
      5.712  0.4781E+00  0.1405E+02
      5.759  0.8208E+00  0.1409E+02
      5.807  0.1356E+01  0.1415E+02
      5.854  0.2114E+01  0.1425E+02
      5.901  0.3051E+01  0.1440E+02
      5.949  0.4021E+01  0.1459E+02
      5.996  0.4816E+01  0.1482E+02
      6.043  0.5225E+01  0.1506E+02
      6.090  0.5110E+01  0.1531E+02
      6.138  0.4493E+01  0.1552E+02
      6.185  0.3555E+01  0.1569E+02
      6.232  0.2547E+01  0.1581E+02
      6.280  0.1675E+01  0.1589E+02
      6.327  0.1031E+01  0.1593E+02
      6.374  0.6071E+00  0.1596E+02
      6.421  0.3476E+00  0.1598E+02
      6.469  0.1957E+00  0.1599E+02
      6.516  0.1091E+00  0.1599E+02
      6.563  0.5774E-01  0.1600E+02
      6.610  0.3193E-01  0.1600E+02