    4    4    5    1
  0.2228503E+02  0.7091058E-09  0.3545529E-09  0.3545529E-09  0.2000000E-14
   920.00000000000000     
  CAR 
 Al, 4 atoms                             
     12      4     12

  0.2500000E+00  0.2500000E+00  0.2500000E+00  0.2500000E+00
      1         -2.898239   1.000000
      2         -0.936923   1.000000
      3          1.728329   1.000000
      4          2.830269   1.000000
      5          2.997063   1.000000
      6          4.683830   0.894055
      7          4.973859   0.178635
      8          6.112848   0.000000
      9          7.405118   0.000000
     10          7.934714   0.000000
     11          8.581131   0.000000
     12         10.575190   0.000000

  0.2500000E+00 -0.2500000E+00  0.2500000E+00  0.2500000E+00
      1         -2.903229   1.000000
      2         -0.907368   1.000000
      3          1.607349   1.000000
      4          2.814959   1.000000
      5          3.099811   1.000000
      6          4.734150   0.817290
      7          5.152973   0.022205
      8          5.928571   0.000001
      9          7.206390   0.000000
     10          7.958431   0.000000
     11          8.664907   0.000000
     12         11.220996   0.000000

  0.2500000E+00 -0.2500000E+00 -0.2500000E+00  0.2500000E+00
      1         -2.901394   1.000000
      2         -0.917378   1.000000
      3          1.644093   1.000000
      4          2.821517   1.000000
      5          3.074423   1.000000
      6          4.647590   0.930214
      7          5.163246   0.019559
      8          5.983693   0.000001
      9          7.259245   0.000000
     10          7.981621   0.000000
     11          8.653352   0.000000
     12         10.476105   0.000000

  0.2500000E+00  0.2500000E+00 -0.2500000E+00  0.2500000E+00
      1         -2.896839   1.000000
      2         -0.946351   1.000000
      3          1.778229   1.000000
      4          2.809368   1.000000
      5          2.974998   1.000000
      6          4.629065   0.943941
      7          4.965770   0.194099
      8          6.179515   0.000000
      9          7.432765   0.000000
     10          7.990302   0.000000
     11          8.539615   0.000000
     12         10.534841   0.000000
