       N       E                     dE             d eps       ncg     rms          rms(c)
RMM:   1     0.202045044422E+02    0.20205E+02   -0.14876E+03    48   0.317E+02
RMM:   2    -0.608144344250E+01   -0.26286E+02   -0.24496E+02    48   0.685E+01
RMM:   3    -0.110860507533E+02   -0.50046E+01   -0.42564E+01    48   0.235E+01
RMM:   4    -0.122009147575E+02   -0.11149E+01   -0.74285E+00    48   0.130E+01
RMM:   5    -0.124289560796E+02   -0.22804E+00   -0.17394E+00    48   0.593E+00
RMM:   6    -0.124919420254E+02   -0.62986E-01   -0.43694E-01    48   0.316E+00
RMM:   7    -0.125050921109E+02   -0.13150E-01   -0.11171E-01    48   0.162E+00
RMM:   8    -0.125082282712E+02   -0.31362E-02   -0.27765E-02    48   0.852E-01
RMM:   9    -0.125089551588E+02   -0.72689E-03   -0.67337E-03    99   0.433E-01
RMM:  10    -0.125091812645E+02   -0.22611E-03   -0.21941E-03    92   0.232E-01
RMM:  11    -0.125092126880E+02   -0.31424E-04   -0.29031E-04    76   0.862E-02
RMM:  12    -0.125092222951E+02   -0.96071E-05   -0.95036E-05    70   0.464E-02    0.368E+00
RMM:  13    -0.117596105858E+02    0.74961E+00   -0.91767E-01   143   0.260E+00    0.184E+00
RMM:  14    -0.116967071025E+02    0.62903E-01   -0.96051E-02   113   0.951E-01    0.108E+00
RMM:  15    -0.116726739266E+02    0.24033E-01   -0.25434E-02   100   0.600E-01    0.503E-01
RMM:  16    -0.116691761421E+02    0.34978E-02   -0.80013E-03    96   0.419E-01    0.859E-02
RMM:  17    -0.116690964848E+02    0.79657E-04   -0.92468E-04    96   0.186E-01
      1 T=  6615. E= -.92806690E+01 F= -.11669096E+02 E0= -.11568755E+02  EK= 0.25653E+01 SP= -.37E+00 SK= 0.19E+00
       N       E                     dE             d eps       ncg     rms          rms(c)
RMM:   1    -0.115717211043E+02    0.97455E-01   -0.68419E-01    96   0.508E+00    0.301E-01
RMM:   2    -0.115722123672E+02   -0.49126E-03   -0.33412E-02    96   0.135E+00    0.142E-01
RMM:   3    -0.115721714415E+02    0.40926E-04   -0.64416E-03    96   0.602E-01    0.677E-02
RMM:   4    -0.115722549825E+02   -0.83541E-04   -0.95445E-04    96   0.250E-01
      2 T=  6568. E= -.92806930E+01 F= -.11572255E+02 E0= -.11471198E+02  EK= 0.25471E+01 SP= -.38E+00 SK= 0.12E+00
       N       E                     dE             d eps       ncg     rms          rms(c)
RMM:   1    -0.114452740878E+02    0.12690E+00   -0.22364E-02    96   0.973E-01    0.159E-01
RMM:   2    -0.114453905759E+02   -0.11649E-03   -0.15457E-03    96   0.264E-01    0.614E-02
RMM:   3    -0.114453927006E+02   -0.21247E-05   -0.28990E-04    85   0.121E-01
      3 T=  6397. E= -.92805609E+01 F= -.11445393E+02 E0= -.11343937E+02  EK= 0.24808E+01 SP= -.39E+00 SK= 0.70E-01
       N       E                     dE             d eps       ncg     rms          rms(c)
RMM:   1    -0.112967474691E+02    0.14864E+00   -0.96575E-03    96   0.579E-01    0.573E-02
RMM:   2    -0.112968394711E+02   -0.92002E-04   -0.12107E-03    98   0.243E-01    0.100E-01
RMM:   3    -0.112968598997E+02   -0.20429E-04   -0.19853E-04    73   0.987E-02
      4 T=  6126. E= -.92796583E+01 F= -.11296860E+02 E0= -.11195026E+02  EK= 0.23757E+01 SP= -.39E+00 SK= 0.34E-01
       N       E                     dE             d eps       ncg     rms          rms(c)
RMM:   1    -0.111372534347E+02    0.15959E+00   -0.10445E-02    96   0.473E-01    0.539E-01
RMM:   2    -0.111373671218E+02   -0.11369E-03   -0.10340E-03    94   0.188E-01    0.602E-01
RMM:   3    -0.111373832742E+02   -0.16152E-04   -0.20617E-04    70   0.878E-02
      5 T=  5786. E= -.92784398E+01 F= -.11137383E+02 E0= -.11035385E+02  EK= 0.22437E+01 SP= -.40E+00 SK= 0.11E-01
       N       E                     dE             d eps       ncg     rms          rms(c)
RMM:   1    -0.109787249143E+02    0.15864E+00   -0.51091E-03    96   0.389E-01    0.658E-01
RMM:   2    -0.109787665612E+02   -0.41647E-04   -0.64261E-04    93   0.157E-01
      6 T=  5411. E= -.92773364E+01 F= -.10978767E+02 E0= -.10877007E+02  EK= 0.20982E+01 SP= -.40E+00 SK= 0.13E-02
       N       E                     dE             d eps       ncg     rms          rms(c)
RMM:   1    -0.108311280838E+02    0.14760E+00   -0.41258E-03    96   0.367E-01    0.350E-01
RMM:   2    -0.108311620783E+02   -0.33994E-04   -0.43118E-04    84   0.133E-01
      7 T=  5033. E= -.92765792E+01 F= -.10831162E+02 E0= -.10730126E+02  EK= 0.19518E+01 SP= -.40E+00 SK= 0.90E-03
       N       E                     dE             d eps       ncg     rms          rms(c)
RMM:   1    -0.107015462242E+02    0.12958E+00   -0.42661E-03    96   0.314E-01    0.763E-02
RMM:   2    -0.107015841873E+02   -0.37963E-04   -0.44753E-04    76   0.105E-01
      8 T=  4678. E= -.92760074E+01 F= -.10701584E+02 E0= -.10601813E+02  EK= 0.18139E+01 SP= -.40E+00 SK= 0.81E-02
       N       E                     dE             d eps       ncg     rms          rms(c)
RMM:   1    -0.105945307913E+02    0.10702E+00   -0.45486E-03    96   0.313E-01    0.186E-01
RMM:   2    -0.105945732697E+02   -0.42478E-04   -0.52386E-04    76   0.115E-01
      9 T=  4361. E= -.92756300E+01 F= -.10594573E+02 E0= -.10496474E+02  EK= 0.16911E+01 SP= -.39E+00 SK= 0.21E-01
       N       E                     dE             d eps       ncg     rms          rms(c)
RMM:   1    -0.105128083494E+02    0.81722E-01   -0.70891E-03    96   0.319E-01    0.901E-02
RMM:   2    -0.105128760613E+02   -0.67712E-04   -0.70949E-04    77   0.132E-01
     10 T=  4095. E= -.92753798E+01 F= -.10512876E+02 E0= -.10416660E+02  EK= 0.15879E+01 SP= -.39E+00 SK= 0.38E-01
       N       E                     dE             d eps       ncg     rms          rms(c)
RMM:   1    -0.104592374511E+02    0.53571E-01   -0.42920E-03    96   0.315E-01    0.248E-02
RMM:   2    -0.104592869859E+02   -0.49535E-04   -0.54604E-04    77   0.132E-01
     11 T=  3889. E= -.92750436E+01 F= -.10459287E+02 E0= -.10364941E+02  EK= 0.15081E+01 SP= -.38E+00 SK= 0.58E-01
       N       E                     dE             d eps       ncg     rms          rms(c)
RMM:   1    -0.104379111484E+02    0.21326E-01   -0.46697E-03    96   0.294E-01    0.304E-02
RMM:   2    -0.104379593760E+02   -0.48228E-04   -0.55093E-04    78   0.127E-01
     12 T=  3756. E= -.92746353E+01 F= -.10437959E+02 E0= -.10345211E+02  EK= 0.14566E+01 SP= -.37E+00 SK= 0.82E-01
       N       E                     dE             d eps       ncg     rms          rms(c)
RMM:   1    -0.104533120624E+02   -0.15401E-01   -0.33082E-03    96   0.276E-01    0.114E-01
RMM:   2    -0.104533478836E+02   -0.35821E-04   -0.38479E-04    76   0.108E-01
     13 T=  3707. E= -.92743320E+01 F= -.10453348E+02 E0= -.10361675E+02  EK= 0.14375E+01 SP= -.37E+00 SK= 0.11E+00
       N       E                     dE             d eps       ncg     rms          rms(c)
RMM:   1    -0.105081993993E+02   -0.54887E-01   -0.26481E-03    96   0.255E-01    0.914E-02
RMM:   2    -0.105082306464E+02   -0.31247E-04   -0.32990E-04    75   0.100E-01
     14 T=  3746. E= -.92742829E+01 F= -.10508231E+02 E0= -.10416960E+02  EK= 0.14528E+01 SP= -.36E+00 SK= 0.14E+00
       N       E                     dE             d eps       ncg     rms          rms(c)
RMM:   1    -0.106016970871E+02   -0.93498E-01   -0.18318E-03    96   0.235E-01    0.115E-01
RMM:   2    -0.106017117962E+02   -0.14709E-04   -0.21281E-04    73   0.863E-02
     15 T=  3869. E= -.92746109E+01 F= -.10601712E+02 E0= -.10510103E+02  EK= 0.15005E+01 SP= -.35E+00 SK= 0.17E+00
       N       E                     dE             d eps       ncg     rms          rms(c)
RMM:   1    -0.107275660445E+02   -0.12587E+00   -0.22788E-03    96   0.230E-01    0.823E-02
RMM:   2    -0.107275900857E+02   -0.24041E-04   -0.24717E-04    71   0.857E-02
     16 T=  4056. E= -.92753346E+01 F= -.10727590E+02 E0= -.10634910E+02  EK= 0.15729E+01 SP= -.33E+00 SK= 0.21E+00
       N       E                     dE             d eps       ncg     rms          rms(c)
RMM:   1    -0.108748005499E+02   -0.14723E+00   -0.28498E-03    96   0.243E-01    0.134E-01
RMM:   2    -0.108748151771E+02   -0.14627E-04   -0.29832E-04    75   0.914E-02
     17 T=  4275. E= -.92762069E+01 F= -.10874815E+02 E0= -.10780451E+02  EK= 0.16577E+01 SP= -.32E+00 SK= 0.26E+00
       N       E                     dE             d eps       ncg     rms          rms(c)
RMM:   1    -0.110302578645E+02   -0.15546E+00   -0.22584E-03    96   0.244E-01    0.495E-02
RMM:   2    -0.110302722223E+02   -0.14358E-04   -0.24035E-04    77   0.891E-02
     18 T=  4489. E= -.92770213E+01 F= -.11030272E+02 E0= -.10933964E+02  EK= 0.17408E+01 SP= -.30E+00 SK= 0.32E+00
       N       E                     dE             d eps       ncg     rms          rms(c)
RMM:   1    -0.111814777941E+02   -0.15122E+00   -0.24829E-03    96   0.250E-01    0.473E-02
RMM:   2    -0.111815049891E+02   -0.27195E-04   -0.25363E-04    74   0.909E-02
     19 T=  4665. E= -.92776424E+01 F= -.11181505E+02 E0= -.11083325E+02  EK= 0.18091E+01 SP= -.29E+00 SK= 0.38E+00
       N       E                     dE             d eps       ncg     rms          rms(c)
RMM:   1    -0.113188098030E+02   -0.13733E+00   -0.36412E-03    96   0.262E-01    0.549E-02
RMM:   2    -0.113188432761E+02   -0.33473E-04   -0.35406E-04    75   0.989E-02
     20 T=  4779. E= -.92779133E+01 F= -.11318843E+02 E0= -.11219126E+02  EK= 0.18531E+01 SP= -.27E+00 SK= 0.46E+00
       N       E                     dE             d eps       ncg     rms          rms(c)
RMM:   1    -0.114367910521E+02   -0.11798E+00   -0.38532E-03    96   0.263E-01    0.161E-01
RMM:   2    -0.114368223984E+02   -0.31346E-04   -0.36657E-04    77   0.100E-01
     21 T=  4817. E= -.92779692E+01 F= -.11436822E+02 E0= -.11336125E+02  EK= 0.18680E+01 SP= -.25E+00 SK= 0.54E+00
       N       E                     dE             d eps       ncg     rms          rms(c)
RMM:   1    -0.115334514321E+02   -0.96660E-01   -0.29402E-03    96   0.243E-01    0.125E-01
RMM:   2    -0.115334821585E+02   -0.30726E-04   -0.31025E-04    75   0.878E-02
     22 T=  4779. E= -.92778604E+01 F= -.11533482E+02 E0= -.11432423E+02  EK= 0.18531E+01 SP= -.23E+00 SK= 0.63E+00
       N       E                     dE             d eps       ncg     rms          rms(c)
RMM:   1    -0.116094346210E+02   -0.75983E-01   -0.28717E-03    96   0.235E-01    0.122E-01
RMM:   2    -0.116094573651E+02   -0.22744E-04   -0.29425E-04    75   0.847E-02
     23 T=  4670. E= -.92776307E+01 F= -.11609457E+02 E0= -.11508457E+02  EK= 0.18109E+01 SP= -.21E+00 SK= 0.73E+00
       N       E                     dE             d eps       ncg     rms          rms(c)
RMM:   1    -0.116670221395E+02   -0.57588E-01   -0.40009E-03    96   0.233E-01    0.964E-02
RMM:   2    -0.116670588642E+02   -0.36725E-04   -0.36633E-04    77   0.904E-02
     24 T=  4502. E= -.92773982E+01 F= -.11667059E+02 E0= -.11566328E+02  EK= 0.17460E+01 SP= -.18E+00 SK= 0.83E+00
       N       E                     dE             d eps       ncg     rms          rms(c)
RMM:   1    -0.117087560389E+02   -0.41734E-01   -0.35360E-03    93   0.220E-01    0.281E-02
RMM:   2    -0.117087882401E+02   -0.32201E-04   -0.33140E-04    75   0.836E-02
     25 T=  4289. E= -.92771264E+01 F= -.11708788E+02 E0= -.11608349E+02  EK= 0.16630E+01 SP= -.16E+00 SK= 0.92E+00
       N       E                     dE             d eps       ncg     rms          rms(c)
RMM:   1    -0.117371828284E+02   -0.28427E-01   -0.28855E-03    94   0.205E-01    0.727E-02
RMM:   2    -0.117372094300E+02   -0.26602E-04   -0.27626E-04    72   0.775E-02
     26 T=  4041. E= -.92768017E+01 F= -.11737209E+02 E0= -.11636982E+02  EK= 0.15669E+01 SP= -.13E+00 SK= 0.10E+01
       N       E                     dE             d eps       ncg     rms          rms(c)
RMM:   1    -0.117549322912E+02   -0.17749E-01   -0.26606E-03    92   0.190E-01    0.144E-02
RMM:   2    -0.117549572896E+02   -0.24998E-04   -0.25677E-04    71   0.738E-02
     27 T=  3771. E= -.92765049E+01 F= -.11754957E+02 E0= -.11654910E+02  EK= 0.14623E+01 SP= -.99E-01 SK= 0.11E+01
       N       E                     dE             d eps       ncg     rms          rms(c)
RMM:   1    -0.117641922896E+02   -0.92600E-02   -0.25077E-03    91   0.176E-01    0.588E-02
RMM:   2    -0.117642151835E+02   -0.22894E-04   -0.23214E-04    72   0.669E-02
     28 T=  3489. E= -.92762303E+01 F= -.11764215E+02 E0= -.11664382E+02  EK= 0.13530E+01 SP= -.69E-01 SK= 0.12E+01
       N       E                     dE             d eps       ncg     rms          rms(c)
RMM:   1    -0.117671304877E+02   -0.29382E-02   -0.24888E-03    90   0.167E-01    0.469E-02
RMM:   2    -0.117671510257E+02   -0.20538E-04   -0.20619E-04    72   0.640E-02
     29 T=  3205. E= -.92759387E+01 F= -.11767151E+02 E0= -.11667707E+02  EK= 0.12428E+01 SP= -.38E-01 SK= 0.13E+01
       N       E                     dE             d eps       ncg     rms          rms(c)
RMM:   1    -0.117663780235E+02    0.75246E-03   -0.27333E-03    88   0.163E-01    0.327E-02
RMM:   2    -0.117664010175E+02   -0.22994E-04   -0.23460E-04    71   0.641E-02
     30 T=  2927. E= -.92756764E+01 F= -.11766401E+02 E0= -.11667667E+02  EK= 0.11351E+01 SP= -.55E-02 SK= 0.14E+01
       N       E                     dE             d eps       ncg     rms          rms(c)
RMM:   1    -0.117647216651E+02    0.16564E-02   -0.11755E-03    87   0.143E-01    0.108E-02
RMM:   2    -0.117647312749E+02   -0.96097E-05   -0.10360E-04    68   0.509E-02
     31 T=  2665. E= -.92754444E+01 F= -.11764731E+02 E0= -.11667090E+02  EK= 0.10333E+01 SP= 0.27E-01 SK= 0.14E+01
       N       E                     dE             d eps       ncg     rms          rms(c)
RMM:   1    -0.117646497688E+02    0.71896E-04   -0.17073E-03    86   0.145E-01    0.382E-02
RMM:   2    -0.117646636306E+02   -0.13862E-04   -0.13949E-04    69   0.551E-02
     32 T=  2424. E= -.92751774E+01 F= -.11764664E+02 E0= -.11668482E+02  EK= 0.94012E+00 SP= 0.61E-01 SK= 0.15E+01
       N       E                     dE             d eps       ncg     rms          rms(c)
RMM:   1    -0.117685237462E+02   -0.38740E-02   -0.54448E-04    85   0.119E-01    0.428E-02
RMM:   2    -0.117685277782E+02   -0.40320E-05   -0.52897E-05    66   0.414E-02
     33 T=  2211. E= -.92749200E+01 F= -.11768528E+02 E0= -.11674163E+02  EK= 0.85755E+00 SP= 0.96E-01 SK= 0.15E+01
       N       E                     dE             d eps       ncg     rms          rms(c)
RMM:   1    -0.117782670092E+02   -0.97433E-02   -0.54269E-04    86   0.104E-01    0.956E-03
RMM:   2    -0.117782716293E+02   -0.46202E-05   -0.45478E-05    66   0.375E-02
     34 T=  2029. E= -.92747207E+01 F= -.11778272E+02 E0= -.11685987E+02  EK= 0.78691E+00 SP= 0.13E+00 SK= 0.16E+01
       N       E                     dE             d eps       ncg     rms          rms(c)
RMM:   1    -0.117950818450E+02   -0.16815E-01   -0.51002E-04    85   0.932E-02    0.164E-02
RMM:   2    -0.117950859637E+02   -0.41188E-05   -0.43914E-05    64   0.349E-02
     35 T=  1879. E= -.92745878E+01 F= -.11795086E+02 E0= -.11705060E+02  EK= 0.72856E+00 SP= 0.17E+00 SK= 0.16E+01
       N       E                     dE             d eps       ncg     rms          rms(c)
RMM:   1    -0.118191665953E+02   -0.24085E-01   -0.42477E-04    84   0.833E-02    0.267E-02
RMM:   2    -0.118191698491E+02   -0.32538E-05   -0.37254E-05    65   0.329E-02
     36 T=  1758. E= -.92745147E+01 F= -.11819170E+02 E0= -.11731483E+02  EK= 0.68181E+00 SP= 0.20E+00 SK= 0.17E+01
       N       E                     dE             d eps       ncg     rms          rms(c)
RMM:   1    -0.118497640037E+02   -0.30597E-01   -0.67109E-04    87   0.892E-02    0.229E-02
RMM:   2    -0.118497693891E+02   -0.53853E-05   -0.57246E-05    65   0.392E-02
     37 T=  1663. E= -.92744833E+01 F= -.11849769E+02 E0= -.11764408E+02  EK= 0.64504E+00 SP= 0.24E+00 SK= 0.17E+01
       N       E                     dE             d eps       ncg     rms          rms(c)
RMM:   1    -0.118854065176E+02   -0.35643E-01   -0.10402E-03    86   0.941E-02    0.154E-02
RMM:   2    -0.118854148715E+02   -0.83539E-05   -0.83125E-05    67   0.444E-02
     38 T=  1589. E= -.92744769E+01 F= -.11885415E+02 E0= -.11802320E+02  EK= 0.61606E+00 SP= 0.27E+00 SK= 0.17E+01
       N       E                     dE             d eps       ncg     rms          rms(c)
RMM:   1    -0.119242188287E+02   -0.38812E-01   -0.91345E-04    84   0.857E-02    0.452E-02
RMM:   2    -0.119242263961E+02   -0.75674E-05   -0.69785E-05    67   0.395E-02
     39 T=  1528. E= -.92744826E+01 F= -.11924226E+02 E0= -.11843283E+02  EK= 0.59242E+00 SP= 0.31E+00 SK= 0.17E+01
       N       E                     dE             d eps       ncg     rms          rms(c)
RMM:   1    -0.119641923434E+02   -0.39974E-01   -0.79386E-04    80   0.763E-02    0.473E-03
RMM:   2    -0.119641981910E+02   -0.58476E-05   -0.56683E-05    63   0.345E-02
     40 T=  1475. E= -.92744920E+01 F= -.11964198E+02 E0= -.11885270E+02  EK= 0.57179E+00 SP= 0.35E+00 SK= 0.18E+01
       N       E                     dE             d eps       ncg     rms          rms(c)
RMM:   1    -0.120034311428E+02   -0.39239E-01   -0.57319E-04    86   0.761E-02    0.209E-02
RMM:   2    -0.120034363379E+02   -0.51951E-05   -0.47402E-05    64   0.347E-02
     41 T=  1424. E= -.92744910E+01 F= -.12003436E+02 E0= -.11926372E+02  EK= 0.55216E+00 SP= 0.39E+00 SK= 0.18E+01
       N       E                     dE             d eps       ncg     rms          rms(c)
RMM:   1    -0.120403173900E+02   -0.36886E-01   -0.72473E-04    82   0.763E-02    0.102E-02
RMM:   2    -0.120403230372E+02   -0.56473E-05   -0.54830E-05    64   0.351E-02
     42 T=  1372. E= -.92744744E+01 F= -.12040323E+02 E0= -.11964973E+02  EK= 0.53194E+00 SP= 0.42E+00 SK= 0.18E+01
       N       E                     dE             d eps       ncg     rms          rms(c)
RMM:   1    -0.120736170305E+02   -0.33300E-01   -0.56763E-04    82   0.685E-02    0.388E-03
RMM:   2    -0.120736218380E+02   -0.48075E-05   -0.44371E-05    60   0.308E-02
     43 T=  1315. E= -.92744467E+01 F= -.12073622E+02 E0= -.11999849E+02  EK= 0.51009E+00 SP= 0.46E+00 SK= 0.18E+01
       N       E                     dE             d eps       ncg     rms          rms(c)
RMM:   1    -0.121025260307E+02   -0.28909E-01   -0.82080E-04    82   0.779E-02    0.127E-02
RMM:   2    -0.121025330065E+02   -0.69758E-05   -0.66637E-05    64   0.369E-02
     44 T=  1253. E= -.92744023E+01 F= -.12102533E+02 E0= -.12030214E+02  EK= 0.48607E+00 SP= 0.50E+00 SK= 0.18E+01
       N       E                     dE             d eps       ncg     rms          rms(c)
RMM:   1    -0.121267068477E+02   -0.24181E-01   -0.74045E-04    81   0.769E-02    0.851E-03
RMM:   2    -0.121267134593E+02   -0.66116E-05   -0.63650E-05    63   0.372E-02
     45 T=  1186. E= -.92743393E+01 F= -.12126713E+02 E0= -.12055745E+02  EK= 0.45982E+00 SP= 0.54E+00 SK= 0.19E+01
       N       E                     dE             d eps       ncg     rms          rms(c)
RMM:   1    -0.121462298870E+02   -0.19523E-01   -0.63540E-04    86   0.753E-02    0.113E-02
RMM:   2    -0.121462355729E+02   -0.56860E-05   -0.53686E-05    64   0.356E-02
     46 T=  1113. E= -.92742580E+01 F= -.12146236E+02 E0= -.12076536E+02  EK= 0.43170E+00 SP= 0.57E+00 SK= 0.19E+01
       N       E                     dE             d eps       ncg     rms          rms(c)
RMM:   1    -0.121614938722E+02   -0.15264E-01   -0.13135E-03    87   0.964E-02    0.380E-03
RMM:   2    -0.121615051988E+02   -0.11327E-04   -0.11092E-04    68   0.494E-02
     47 T=  1038. E= -.92741675E+01 F= -.12161505E+02 E0= -.12093011E+02  EK= 0.40233E+00 SP= 0.61E+00 SK= 0.19E+01
       N       E                     dE             d eps       ncg     rms          rms(c)
RMM:   1    -0.121731569522E+02   -0.11663E-01   -0.82510E-04    82   0.792E-02    0.451E-03
RMM:   2    -0.121731642669E+02   -0.73147E-05   -0.71927E-05    61   0.400E-02
     48 T=   961. E= -.92740752E+01 F= -.12173164E+02 E0= -.12105830E+02  EK= 0.37247E+00 SP= 0.65E+00 SK= 0.19E+01
       N       E                     dE             d eps       ncg     rms          rms(c)
RMM:   1    -0.121819865505E+02   -0.88296E-02   -0.53350E-04    83   0.694E-02    0.104E-02
RMM:   2    -0.121819914042E+02   -0.48537E-05   -0.48940E-05    62   0.335E-02
     49 T=   884. E= -.92739751E+01 F= -.12181991E+02 E0= -.12115777E+02  EK= 0.34296E+00 SP= 0.69E+00 SK= 0.19E+01
       N       E                     dE             d eps       ncg     rms          rms(c)
RMM:   1    -0.121888247591E+02   -0.68382E-02   -0.10133E-03    89   0.909E-02    0.741E-03
RMM:   2    -0.121888332809E+02   -0.85218E-05   -0.84016E-05    68   0.455E-02
     50 T=   811. E= -.92738714E+01 F= -.12188833E+02 E0= -.12123710E+02  EK= 0.31459E+00 SP= 0.73E+00 SK= 0.19E+01
       N       E                     dE             d eps       ncg     rms          rms(c)
RMM:   1    -0.121945356663E+02   -0.57109E-02   -0.11628E-03    85   0.884E-02    0.863E-03
RMM:   2    -0.121945451802E+02   -0.95139E-05   -0.94123E-05    68   0.439E-02
     51 T=   743. E= -.92737760E+01 F= -.12194545E+02 E0= -.12130485E+02  EK= 0.28807E+00 SP= 0.77E+00 SK= 0.19E+01
       N       E                     dE             d eps       ncg     rms          rms(c)
RMM:   1    -0.121999221047E+02   -0.53864E-02   -0.67133E-04    87   0.775E-02    0.111E-02
RMM:   2    -0.121999282311E+02   -0.61264E-05   -0.58513E-05    62   0.373E-02
     52 T=   681. E= -.92736883E+01 F= -.12199928E+02 E0= -.12136907E+02  EK= 0.26398E+00 SP= 0.80E+00 SK= 0.19E+01
       N       E                     dE             d eps       ncg     rms          rms(c)
RMM:   1    -0.122056823245E+02   -0.57602E-02   -0.42873E-04    83   0.653E-02    0.942E-03
RMM:   2    -0.122056858767E+02   -0.35522E-05   -0.38807E-05    60   0.314E-02
     53 T=   626. E= -.92736051E+01 F= -.12205686E+02 E0= -.12143678E+02  EK= 0.24276E+00 SP= 0.84E+00 SK= 0.18E+01
       N       E                     dE             d eps       ncg     rms          rms(c)
RMM:   1    -0.122123832090E+02   -0.67009E-02   -0.36438E-04    82   0.605E-02    0.685E-03
RMM:   2    -0.122123866855E+02   -0.34765E-05   -0.36263E-05    59   0.297E-02
     54 T=   579. E= -.92735268E+01 F= -.12212387E+02 E0= -.12151366E+02  EK= 0.22465E+00 SP= 0.88E+00 SK= 0.18E+01
       N       E                     dE             d eps       ncg     rms          rms(c)
RMM:   1    -0.122204343056E+02   -0.80511E-02   -0.43515E-04    81   0.610E-02    0.959E-03
RMM:   2    -0.122204378277E+02   -0.35221E-05   -0.37053E-05    62   0.301E-02
     55 T=   541. E= -.92734563E+01 F= -.12220438E+02 E0= -.12160385E+02  EK= 0.20973E+00 SP= 0.92E+00 SK= 0.18E+01
       N       E                     dE             d eps       ncg     rms          rms(c)
RMM:   1    -0.122300750811E+02   -0.96408E-02   -0.26789E-04    74   0.483E-02    0.132E-02
RMM:   2    -0.122300775900E+02   -0.25089E-05   -0.23233E-05    56   0.228E-02
     56 T=   510. E= -.92733925E+01 F= -.12230078E+02 E0= -.12170977E+02  EK= 0.19789E+00 SP= 0.96E+00 SK= 0.18E+01
       N       E                     dE             d eps       ncg     rms          rms(c)
RMM:   1    -0.122413747236E+02   -0.11300E-01   -0.17518E-04    74   0.458E-02    0.297E-02
RMM:   2    -0.122413759189E+02   -0.11954E-05   -0.15896E-05    52   0.211E-02
     57 T=   487. E= -.92733357E+01 F= -.12241376E+02 E0= -.12183196E+02  EK= 0.18890E+00 SP= 0.99E+00 SK= 0.18E+01
       N       E                     dE             d eps       ncg     rms          rms(c)
RMM:   1    -0.122542477377E+02   -0.12873E-01   -0.16837E-04    71   0.438E-02    0.107E-02
RMM:   2    -0.122542490819E+02   -0.13442E-05   -0.13566E-05    50   0.192E-02
     58 T=   470. E= -.92732891E+01 F= -.12254249E+02 E0= -.12196959E+02  EK= 0.18237E+00 SP= 0.10E+01 SK= 0.18E+01
       N       E                     dE             d eps       ncg     rms          rms(c)
RMM:   1    -0.122684812805E+02   -0.14234E-01   -0.52735E-05    60   0.354E-02    0.189E-02
RMM:   2    -0.122684818487E+02   -0.56816E-06   -0.48363E-06    43   0.144E-02
     59 T=   459. E= -.92732503E+01 F= -.12268482E+02 E0= -.12212056E+02  EK= 0.17787E+00 SP= 0.11E+01 SK= 0.18E+01
       N       E                     dE             d eps       ncg     rms          rms(c)
RMM:   1    -0.122837586691E+02   -0.15277E-01   -0.38879E-05    65   0.327E-02    0.611E-03
RMM:   2    -0.122837585911E+02    0.77980E-07   -0.28889E-06    38   0.129E-02
     60 T=   451. E= -.92732174E+01 F= -.12283759E+02 E0= -.12228162E+02  EK= 0.17489E+00 SP= 0.11E+01 SK= 0.17E+01
       N       E                     dE             d eps       ncg     rms          rms(c)
RMM:   1    -0.122996955761E+02   -0.15937E-01   -0.81667E-05    64   0.363E-02    0.158E-02
RMM:   2    -0.122996960722E+02   -0.49606E-06   -0.58146E-06    44   0.150E-02
     61 T=   446. E= -.92731897E+01 F= -.12299696E+02 E0= -.12244881E+02  EK= 0.17292E+00 SP= 0.11E+01 SK= 0.17E+01
       N       E                     dE             d eps       ncg     rms          rms(c)
RMM:   1    -0.123158772279E+02   -0.16182E-01   -0.11994E-04    67   0.382E-02    0.268E-02
RMM:   2    -0.123158775843E+02   -0.35638E-06   -0.89667E-06    41   0.161E-02
     62 T=   442. E= -.92731664E+01 F= -.12315878E+02 E0= -.12261795E+02  EK= 0.17146E+00 SP= 0.12E+01 SK= 0.17E+01
       N       E                     dE             d eps       ncg     rms          rms(c)
RMM:   1    -0.123318841298E+02   -0.16007E-01   -0.71098E-05    62   0.359E-02    0.137E-02
RMM:   2    -0.123318845762E+02   -0.44637E-06   -0.43561E-06    36   0.142E-02
     63 T=   439. E= -.92731421E+01 F= -.12331885E+02 E0= -.12278481E+02  EK= 0.17008E+00 SP= 0.12E+01 SK= 0.17E+01
       N       E                     dE             d eps       ncg     rms          rms(c)
RMM:   1    -0.123473251303E+02   -0.15441E-01   -0.61297E-05    59   0.358E-02    0.309E-03
RMM:   2    -0.123473255851E+02   -0.45480E-06   -0.47321E-06    40   0.141E-02
     64 T=   434. E= -.92731163E+01 F= -.12347326E+02 E0= -.12294535E+02  EK= 0.16838E+00 SP= 0.12E+01 SK= 0.17E+01
       N       E                     dE             d eps       ncg     rms          rms(c)
RMM:   1    -0.123618557207E+02   -0.14531E-01   -0.84117E-05    62   0.369E-02    0.366E-03
RMM:   2    -0.123618561667E+02   -0.44592E-06   -0.56621E-06    39   0.148E-02
     65 T=   428. E= -.92730925E+01 F= -.12361856E+02 E0= -.12309605E+02  EK= 0.16608E+00 SP= 0.13E+01 SK= 0.16E+01
       N       E                     dE             d eps       ncg     rms          rms(c)
RMM:   1    -0.123751979657E+02   -0.13342E-01   -0.15186E-04    71   0.455E-02    0.293E-03
RMM:   2    -0.123751992132E+02   -0.12475E-05   -0.12959E-05    46   0.204E-02
     66 T=   420. E= -.92730722E+01 F= -.12375199E+02 E0= -.12323417E+02  EK= 0.16296E+00 SP= 0.13E+01 SK= 0.16E+01
       N       E                     dE             d eps       ncg     rms          rms(c)
RMM:   1    -0.123871520882E+02   -0.11954E-01   -0.12455E-04    62   0.386E-02    0.238E-03
RMM:   2    -0.123871529489E+02   -0.86063E-06   -0.87040E-06    40   0.165E-02
     67 T=   410. E= -.92730529E+01 F= -.12387153E+02 E0= -.12335768E+02  EK= 0.15890E+00 SP= 0.14E+01 SK= 0.16E+01
       N       E                     dE             d eps       ncg     rms          rms(c)
RMM:   1    -0.123975940208E+02   -0.10442E-01   -0.10099E-04    65   0.383E-02    0.213E-03
RMM:   2    -0.123975948782E+02   -0.85745E-06   -0.82093E-06    44   0.165E-02
     68 T=   397. E= -.92730305E+01 F= -.12397595E+02 E0= -.12346532E+02  EK= 0.15389E+00 SP= 0.14E+01 SK= 0.16E+01
       N       E                     dE             d eps       ncg     rms          rms(c)
RMM:   1    -0.124064731853E+02   -0.88792E-02   -0.11733E-04    63   0.401E-02    0.268E-03
RMM:   2    -0.124064740636E+02   -0.87835E-06   -0.89476E-06    45   0.173E-02
     69 T=   382. E= -.92730093E+01 F= -.12406474E+02 E0= -.12355662E+02  EK= 0.14796E+00 SP= 0.14E+01 SK= 0.16E+01
       N       E                     dE             d eps       ncg     rms          rms(c)
RMM:   1    -0.124138006748E+02   -0.73275E-02   -0.20773E-04    66   0.457E-02    0.240E-03
RMM:   2    -0.124138024721E+02   -0.17973E-05   -0.17692E-05    49   0.212E-02
     70 T=   364. E= -.92729917E+01 F= -.12413802E+02 E0= -.12363174E+02  EK= 0.14119E+00 SP= 0.15E+01 SK= 0.15E+01
       N       E                     dE             d eps       ncg     rms          rms(c)
RMM:   1    -0.124196403946E+02   -0.58397E-02   -0.15481E-04    66   0.423E-02    0.286E-03
RMM:   2    -0.124196416888E+02   -0.12942E-05   -0.12475E-05    48   0.189E-02
     71 T=   345. E= -.92729752E+01 F= -.12419642E+02 E0= -.12369127E+02  EK= 0.13372E+00 SP= 0.15E+01 SK= 0.15E+01
       N       E                     dE             d eps       ncg     rms          rms(c)
RMM:   1    -0.124240912507E+02   -0.44509E-02   -0.11539E-04    64   0.373E-02    0.268E-03
RMM:   2    -0.124240921701E+02   -0.91942E-06   -0.85278E-06    44   0.170E-02
     72 T=   324. E= -.92729561E+01 F= -.12424092E+02 E0= -.12373628E+02  EK= 0.12570E+00 SP= 0.15E+01 SK= 0.15E+01
       N       E                     dE             d eps       ncg     rms          rms(c)
RMM:   1    -0.124272810669E+02   -0.31898E-02   -0.21628E-04    70   0.478E-02    0.165E-03
RMM:   2    -0.124272828984E+02   -0.18315E-05   -0.17672E-05    53   0.219E-02
     73 T=   302. E= -.92729384E+01 F= -.12427283E+02 E0= -.12376809E+02  EK= 0.11730E+00 SP= 0.16E+01 SK= 0.15E+01
       N       E                     dE             d eps       ncg     rms          rms(c)
RMM:   1    -0.124293605793E+02   -0.20795E-02   -0.19800E-04    69   0.451E-02    0.211E-03
RMM:   2    -0.124293625574E+02   -0.19781E-05   -0.18596E-05    50   0.216E-02
     74 T=   280. E= -.92729259E+01 F= -.12429363E+02 E0= -.12378833E+02  EK= 0.10869E+00 SP= 0.16E+01 SK= 0.14E+01
       N       E                     dE             d eps       ncg     rms          rms(c)
RMM:   1    -0.124304936962E+02   -0.11331E-02   -0.11973E-04    63   0.375E-02    0.270E-03
RMM:   2    -0.124304946071E+02   -0.91082E-06   -0.84655E-06    44   0.171E-02
     75 T=   258. E= -.92729149E+01 F= -.12430495E+02 E0= -.12379875E+02  EK= 0.10003E+00 SP= 0.16E+01 SK= 0.14E+01
       N       E                     dE             d eps       ncg     rms          rms(c)
RMM:   1    -0.124308502258E+02   -0.35653E-03   -0.17485E-04    72   0.449E-02    0.300E-03
RMM:   2    -0.124308515596E+02   -0.13337E-05   -0.13113E-05    50   0.206E-02
     76 T=   236. E= -.92729035E+01 F= -.12430852E+02 E0= -.12380109E+02  EK= 0.91474E-01 SP= 0.17E+01 SK= 0.14E+01
       N       E                     dE             d eps       ncg     rms          rms(c)
RMM:   1    -0.124306103462E+02    0.23988E-03   -0.67331E-05    62   0.338E-02    0.170E-03
RMM:   2    -0.124306109085E+02   -0.56227E-06   -0.58971E-06    47   0.151E-02
     77 T=   215. E= -.92728929E+01 F= -.12430611E+02 E0= -.12379716E+02  EK= 0.83182E-01 SP= 0.17E+01 SK= 0.14E+01
       N       E                     dE             d eps       ncg     rms          rms(c)
RMM:   1    -0.124299493757E+02    0.66097E-03   -0.95261E-05    64   0.359E-02    0.219E-03
RMM:   2    -0.124299501559E+02   -0.78025E-06   -0.74899E-06    45   0.167E-02
     78 T=   194. E= -.92728845E+01 F= -.12429950E+02 E0= -.12378885E+02  EK= 0.75283E-01 SP= 0.17E+01 SK= 0.14E+01
       N       E                     dE             d eps       ncg     rms          rms(c)
RMM:   1    -0.124290423884E+02    0.90699E-03   -0.63957E-05    62   0.326E-02    0.362E-03
RMM:   2    -0.124290428024E+02   -0.41400E-06   -0.47517E-06    41   0.142E-02
     79 T=   175. E= -.92728788E+01 F= -.12429043E+02 E0= -.12377800E+02  EK= 0.67897E-01 SP= 0.18E+01 SK= 0.13E+01
       N       E                     dE             d eps       ncg     rms          rms(c)
RMM:   1    -0.124280523045E+02    0.99008E-03   -0.10014E-04    64   0.365E-02    0.251E-03
RMM:   2    -0.124280530480E+02   -0.74349E-06   -0.77036E-06    40   0.164E-02
     80 T=   158. E= -.92728742E+01 F= -.12428053E+02 E0= -.12376626E+02  EK= 0.61127E-01 SP= 0.18E+01 SK= 0.13E+01
       N       E                     dE             d eps       ncg     rms          rms(c)
RMM:   1    -0.124271315919E+02    0.92071E-03   -0.10748E-04    65   0.379E-02    0.182E-03
RMM:   2    -0.124271325248E+02   -0.93288E-06   -0.99637E-06    45   0.174E-02
     81 T=   142. E= -.92728703E+01 F= -.12427133E+02 E0= -.12375519E+02  EK= 0.55055E-01 SP= 0.18E+01 SK= 0.13E+01
       N       E                     dE             d eps       ncg     rms          rms(c)
RMM:   1    -0.124264166762E+02    0.71492E-03   -0.95121E-05    64   0.353E-02    0.283E-03
RMM:   2    -0.124264174101E+02   -0.73391E-06   -0.80372E-06    45   0.164E-02
     82 T=   128. E= -.92728670E+01 F= -.12426417E+02 E0= -.12374624E+02  EK= 0.49743E-01 SP= 0.19E+01 SK= 0.12E+01
       N       E                     dE             d eps       ncg     rms          rms(c)
RMM:   1    -0.124260245779E+02    0.39210E-03   -0.92107E-05    61   0.354E-02    0.216E-03
RMM:   2    -0.124260253917E+02   -0.81373E-06   -0.82189E-06    46   0.162E-02
     83 T=   117. E= -.92728639E+01 F= -.12426025E+02 E0= -.12374060E+02  EK= 0.45230E-01 SP= 0.19E+01 SK= 0.12E+01
       N       E                     dE             d eps       ncg     rms          rms(c)
RMM:   1    -0.124260533512E+02   -0.28773E-04   -0.11488E-04    64   0.378E-02    0.161E-03
RMM:   2    -0.124260543957E+02   -0.10445E-05   -0.10470E-05    48   0.174E-02
     84 T=   107. E= -.92728624E+01 F= -.12426054E+02 E0= -.12373927E+02  EK= 0.41535E-01 SP= 0.19E+01 SK= 0.12E+01
       N       E                     dE             d eps       ncg     rms          rms(c)
RMM:   1    -0.124265807432E+02   -0.52739E-03   -0.55494E-05    59   0.301E-02    0.230E-03
RMM:   2    -0.124265812143E+02   -0.47118E-06   -0.49606E-06    39   0.135E-02
     85 T=   100. E= -.92728622E+01 F= -.12426581E+02 E0= -.12374308E+02  EK= 0.38658E-01 SP= 0.20E+01 SK= 0.12E+01
       N       E                     dE             d eps       ncg     rms          rms(c)
RMM:   1    -0.124276601830E+02   -0.10794E-02   -0.79277E-05    60   0.339E-02    0.220E-03
RMM:   2    -0.124276609337E+02   -0.75065E-06   -0.71990E-06    43   0.157E-02
     86 T=    94. E= -.92728632E+01 F= -.12427661E+02 E0= -.12375255E+02  EK= 0.36579E-01 SP= 0.20E+01 SK= 0.11E+01
       N       E                     dE             d eps       ncg     rms          rms(c)
RMM:   1    -0.124293267322E+02   -0.16665E-02   -0.62339E-05    60   0.314E-02    0.193E-03
RMM:   2    -0.124293271491E+02   -0.41690E-06   -0.44531E-06    37   0.134E-02
     87 T=    91. E= -.92728666E+01 F= -.12429327E+02 E0= -.12376805E+02  EK= 0.35262E-01 SP= 0.20E+01 SK= 0.11E+01
       N       E                     dE             d eps       ncg     rms          rms(c)
RMM:   1    -0.124315920295E+02   -0.22653E-02   -0.64564E-05    61   0.311E-02    0.172E-03
RMM:   2    -0.124315924763E+02   -0.44682E-06   -0.39489E-06    37   0.138E-02
     88 T=    89. E= -.92728711E+01 F= -.12431592E+02 E0= -.12378968E+02  EK= 0.34658E-01 SP= 0.20E+01 SK= 0.11E+01
       N       E                     dE             d eps       ncg     rms          rms(c)
RMM:   1    -0.124344499939E+02   -0.28580E-02   -0.85063E-05    65   0.332E-02    0.132E-03
RMM:   2    -0.124344504693E+02   -0.47540E-06   -0.54703E-06    42   0.143E-02
     89 T=    89. E= -.92728757E+01 F= -.12434450E+02 E0= -.12381739E+02  EK= 0.34702E-01 SP= 0.21E+01 SK= 0.11E+01
       N       E                     dE             d eps       ncg     rms          rms(c)
RMM:   1    -0.124378756070E+02   -0.34256E-02   -0.73238E-05    63   0.335E-02    0.294E-03
RMM:   2    -0.124378762622E+02   -0.65522E-06   -0.63950E-06    42   0.146E-02
     90 T=    91. E= -.92728808E+01 F= -.12437876E+02 E0= -.12385087E+02  EK= 0.35321E-01 SP= 0.21E+01 SK= 0.10E+01
       N       E                     dE             d eps       ncg     rms          rms(c)
RMM:   1    -0.124418290619E+02   -0.39535E-02   -0.53396E-05    59   0.315E-02    0.343E-03
RMM:   2    -0.124418295846E+02   -0.52274E-06   -0.57630E-06    43   0.143E-02
     91 T=    94. E= -.92728873E+01 F= -.12441830E+02 E0= -.12388971E+02  EK= 0.36432E-01 SP= 0.21E+01 SK= 0.10E+01
       N       E                     dE             d eps       ncg     rms          rms(c)
RMM:   1    -0.124462569119E+02   -0.44279E-02   -0.47221E-05    59   0.307E-02    0.182E-03
RMM:   2    -0.124462573286E+02   -0.41671E-06   -0.42480E-06    41   0.135E-02
     92 T=    98. E= -.92728943E+01 F= -.12446257E+02 E0= -.12393335E+02  EK= 0.37950E-01 SP= 0.22E+01 SK= 0.98E+00
       N       E                     dE             d eps       ncg     rms          rms(c)
RMM:   1    -0.124510955253E+02   -0.48386E-02   -0.27236E-05    58   0.274E-02    0.166E-03
RMM:   2    -0.124510956816E+02   -0.15634E-06   -0.19466E-06    36   0.117E-02
     93 T=   103. E= -.92729016E+01 F= -.12451096E+02 E0= -.12398113E+02  EK= 0.39784E-01 SP= 0.22E+01 SK= 0.96E+00
       N       E                     dE             d eps       ncg     rms          rms(c)
RMM:   1    -0.124562736108E+02   -0.51781E-02   -0.28785E-05    59   0.270E-02    0.228E-03
RMM:   2    -0.124562737845E+02   -0.17375E-06   -0.18797E-06    34   0.117E-02
     94 T=   108. E= -.92729097E+01 F= -.12456274E+02 E0= -.12403234E+02  EK= 0.41847E-01 SP= 0.22E+01 SK= 0.93E+00
       N       E                     dE             d eps       ncg     rms          rms(c)
RMM:   1    -0.124617162836E+02   -0.54427E-02   -0.30528E-05    57   0.264E-02    0.167E-03
RMM:   2    -0.124617164589E+02   -0.17526E-06   -0.21260E-06    33   0.115E-02
     95 T=   114. E= -.92729188E+01 F= -.12461716E+02 E0= -.12408615E+02  EK= 0.44052E-01 SP= 0.22E+01 SK= 0.91E+00
       N       E                     dE             d eps       ncg     rms          rms(c)
RMM:   1    -0.124673471780E+02   -0.56309E-02   -0.32358E-05    59   0.279E-02    0.157E-03
RMM:   2    -0.124673473257E+02   -0.14771E-06   -0.15853E-06    34   0.119E-02
     96 T=   119. E= -.92729283E+01 F= -.12467347E+02 E0= -.12414175E+02  EK= 0.46320E-01 SP= 0.23E+01 SK= 0.89E+00
       N       E                     dE             d eps       ncg     rms          rms(c)
RMM:   1    -0.124730909620E+02   -0.57438E-02   -0.39681E-05    59   0.286E-02    0.169E-03
RMM:   2    -0.124730911406E+02   -0.17861E-06   -0.29948E-06    32   0.124E-02
     97 T=   125. E= -.92729377E+01 F= -.12473091E+02 E0= -.12419837E+02  EK= 0.48578E-01 SP= 0.23E+01 SK= 0.86E+00
       N       E                     dE             d eps       ncg     rms          rms(c)
RMM:   1    -0.124788766492E+02   -0.57857E-02   -0.74912E-05    61   0.318E-02    0.329E-03
RMM:   2    -0.124788771343E+02   -0.48510E-06   -0.46939E-06    35   0.133E-02
     98 T=   131. E= -.92729481E+01 F= -.12478877E+02 E0= -.12425524E+02  EK= 0.50761E-01 SP= 0.23E+01 SK= 0.84E+00
       N       E                     dE             d eps       ncg     rms          rms(c)
RMM:   1    -0.124846401000E+02   -0.57635E-02   -0.43871E-05    60   0.294E-02    0.197E-03
RMM:   2    -0.124846403283E+02   -0.22831E-06   -0.31891E-06    32   0.127E-02
     99 T=   136. E= -.92729576E+01 F= -.12484640E+02 E0= -.12431173E+02  EK= 0.52818E-01 SP= 0.23E+01 SK= 0.82E+00
       N       E                     dE             d eps       ncg     rms          rms(c)
RMM:   1    -0.124903245672E+02   -0.56845E-02   -0.47697E-05    61   0.311E-02    0.213E-03
RMM:   2    -0.124903248003E+02   -0.23310E-06   -0.33355E-06    35   0.134E-02
    100 T=   141. E= -.92729664E+01 F= -.12490325E+02 E0= -.12436720E+02  EK= 0.54707E-01 SP= 0.24E+01 SK= 0.80E+00
       N       E                     dE             d eps       ncg     rms          rms(c)
RMM:   1    -0.124958827929E+02   -0.55582E-02   -0.47153E-05    58   0.306E-02    0.229E-03
RMM:   2    -0.124958830432E+02   -0.25028E-06   -0.28490E-06    33   0.130E-02
    101 T=   145. E= -.92729745E+01 F= -.12495883E+02 E0= -.12442112E+02  EK= 0.56395E-01 SP= 0.24E+01 SK= 0.78E+00
       N       E                     dE             d eps       ncg     rms          rms(c)
RMM:   1    -0.125012793113E+02   -0.53965E-02   -0.48947E-05    58   0.318E-02    0.181E-03
RMM:   2    -0.125012796580E+02   -0.34675E-06   -0.38541E-06    36   0.142E-02
    102 T=   149. E= -.92729833E+01 F= -.12501280E+02 E0= -.12447312E+02  EK= 0.57864E-01 SP= 0.24E+01 SK= 0.76E+00
       N       E                     dE             d eps       ncg     rms          rms(c)
RMM:   1    -0.125064880292E+02   -0.52087E-02   -0.45036E-05    59   0.313E-02    0.203E-03
RMM:   2    -0.125064884401E+02   -0.41094E-06   -0.43074E-06    38   0.140E-02
    103 T=   152. E= -.92729917E+01 F= -.12506488E+02 E0= -.12452295E+02  EK= 0.59106E-01 SP= 0.24E+01 SK= 0.74E+00
       N       E                     dE             d eps       ncg     rms          rms(c)
RMM:   1    -0.125114942341E+02   -0.50062E-02   -0.56619E-05    60   0.315E-02    0.259E-03
RMM:   2    -0.125114945953E+02   -0.36115E-06   -0.43590E-06    38   0.141E-02
    104 T=   155. E= -.92729995E+01 F= -.12511495E+02 E0= -.12457039E+02  EK= 0.60125E-01 SP= 0.25E+01 SK= 0.72E+00
       N       E                     dE             d eps       ncg     rms          rms(c)
RMM:   1    -0.125162917547E+02   -0.47975E-02   -0.75701E-05    62   0.350E-02    0.315E-03
RMM:   2    -0.125162925831E+02   -0.82840E-06   -0.78096E-06    43   0.164E-02
    105 T=   157. E= -.92730071E+01 F= -.12516293E+02 E0= -.12461540E+02  EK= 0.60930E-01 SP= 0.25E+01 SK= 0.70E+00
       N       E                     dE             d eps       ncg     rms          rms(c)
RMM:   1    -0.125208840041E+02   -0.45922E-02   -0.64426E-05    59   0.329E-02    0.239E-03
RMM:   2    -0.125208845716E+02   -0.56752E-06   -0.67298E-06    44   0.153E-02
    106 T=   159. E= -.92730126E+01 F= -.12520885E+02 E0= -.12465797E+02  EK= 0.61540E-01 SP= 0.25E+01 SK= 0.68E+00
       N       E                     dE             d eps       ncg     rms          rms(c)
RMM:   1    -0.125252781723E+02   -0.43942E-02   -0.10979E-04    66   0.366E-02    0.230E-03
RMM:   2    -0.125252789847E+02   -0.81244E-06   -0.76100E-06    42   0.169E-02
    107 T=   160. E= -.92730172E+01 F= -.12525279E+02 E0= -.12469818E+02  EK= 0.61975E-01 SP= 0.25E+01 SK= 0.66E+00
       N       E                     dE             d eps       ncg     rms          rms(c)
RMM:   1    -0.125294880144E+02   -0.42098E-02   -0.13660E-04    69   0.407E-02    0.178E-03
RMM:   2    -0.125294892417E+02   -0.12273E-05   -0.11848E-05    48   0.192E-02
    108 T=   161. E= -.92730234E+01 F= -.12529489E+02 E0= -.12473614E+02  EK= 0.62258E-01 SP= 0.26E+01 SK= 0.64E+00
       N       E                     dE             d eps       ncg     rms          rms(c)
RMM:   1    -0.125335293375E+02   -0.40413E-02   -0.12801E-04    69   0.414E-02    0.218E-03
RMM:   2    -0.125335305769E+02   -0.12394E-05   -0.11725E-05    51   0.200E-02
    109 T=   161. E= -.92730305E+01 F= -.12533531E+02 E0= -.12477202E+02  EK= 0.62413E-01 SP= 0.26E+01 SK= 0.62E+00
       N       E                     dE             d eps       ncg     rms          rms(c)
RMM:   1    -0.125374192199E+02   -0.38899E-02   -0.81422E-05    63   0.358E-02    0.247E-03
RMM:   2    -0.125374200460E+02   -0.82609E-06   -0.75482E-06    48   0.164E-02
    110 T=   161. E= -.92730368E+01 F= -.12537420E+02 E0= -.12480597E+02  EK= 0.62467E-01 SP= 0.26E+01 SK= 0.60E+00
       N       E                     dE             d eps       ncg     rms          rms(c)
RMM:   1    -0.125411727102E+02   -0.37535E-02   -0.11399E-04    65   0.362E-02    0.235E-03
RMM:   2    -0.125411736875E+02   -0.97730E-06   -0.98434E-06    49   0.171E-02
    111 T=   161. E= -.92730412E+01 F= -.12541174E+02 E0= -.12483817E+02  EK= 0.62443E-01 SP= 0.26E+01 SK= 0.59E+00
       N       E                     dE             d eps       ncg     rms          rms(c)
RMM:   1    -0.125448067182E+02   -0.36340E-02   -0.70342E-05    62   0.344E-02    0.166E-03
RMM:   2    -0.125448075653E+02   -0.84709E-06   -0.84132E-06    52   0.165E-02
    112 T=   161. E= -.92730463E+01 F= -.12544808E+02 E0= -.12486877E+02  EK= 0.62358E-01 SP= 0.26E+01 SK= 0.57E+00
       N       E                     dE             d eps       ncg     rms          rms(c)
RMM:   1    -0.125483349650E+02   -0.35282E-02   -0.10974E-04    67   0.354E-02    0.217E-03
RMM:   2    -0.125483360422E+02   -0.10772E-05   -0.10104E-05    45   0.171E-02
    113 T=   160. E= -.92730531E+01 F= -.12548336E+02 E0= -.12489794E+02  EK= 0.62228E-01 SP= 0.27E+01 SK= 0.55E+00
       N       E                     dE             d eps       ncg     rms          rms(c)
RMM:   1    -0.125517714670E+02   -0.34365E-02   -0.73333E-05    63   0.358E-02    0.174E-03
RMM:   2    -0.125517722711E+02   -0.80417E-06   -0.74843E-06    47   0.164E-02
    114 T=   160. E= -.92730600E+01 F= -.12551772E+02 E0= -.12492582E+02  EK= 0.62071E-01 SP= 0.27E+01 SK= 0.54E+00
       N       E                     dE             d eps       ncg     rms          rms(c)
RMM:   1    -0.125551256539E+02   -0.33542E-02   -0.63316E-05    63   0.309E-02    0.183E-03
RMM:   2    -0.125551261566E+02   -0.50268E-06   -0.55425E-06    44   0.141E-02
    115 T=   160. E= -.92730654E+01 F= -.12555126E+02 E0= -.12495250E+02  EK= 0.61898E-01 SP= 0.27E+01 SK= 0.52E+00
       N       E                     dE             d eps       ncg     rms          rms(c)
RMM:   1    -0.125584035167E+02   -0.32779E-02   -0.80049E-05    64   0.367E-02    0.373E-03
RMM:   2    -0.125584044061E+02   -0.88940E-06   -0.87439E-06    46   0.172E-02
    116 T=   159. E= -.92730717E+01 F= -.12558404E+02 E0= -.12497804E+02  EK= 0.61714E-01 SP= 0.27E+01 SK= 0.50E+00
       N       E                     dE             d eps       ncg     rms          rms(c)
RMM:   1    -0.125616092351E+02   -0.32057E-02   -0.53156E-05    63   0.326E-02    0.356E-03
RMM:   2    -0.125616097196E+02   -0.48443E-06   -0.47706E-06    45   0.147E-02
    117 T=   159. E= -.92730790E+01 F= -.12561610E+02 E0= -.12500251E+02  EK= 0.61523E-01 SP= 0.27E+01 SK= 0.49E+00
       N       E                     dE             d eps       ncg     rms          rms(c)
RMM:   1    -0.125647382830E+02   -0.31290E-02   -0.44905E-05    64   0.303E-02    0.347E-03
RMM:   2    -0.125647385602E+02   -0.27722E-06   -0.24138E-06    36   0.126E-02
    118 T=   158. E= -.92730845E+01 F= -.12564739E+02 E0= -.12502589E+02  EK= 0.61323E-01 SP= 0.28E+01 SK= 0.47E+00
       N       E                     dE             d eps       ncg     rms          rms(c)
RMM:   1    -0.125677821101E+02   -0.30438E-02   -0.61176E-05    63   0.338E-02    0.312E-03
RMM:   2    -0.125677823547E+02   -0.24458E-06   -0.52947E-06    43   0.155E-02
    119 T=   158. E= -.92730905E+01 F= -.12567782E+02 E0= -.12504805E+02  EK= 0.61105E-01 SP= 0.28E+01 SK= 0.45E+00
       N       E                     dE             d eps       ncg     rms          rms(c)
RMM:   1    -0.125707264621E+02   -0.29444E-02   -0.51001E-05    65   0.335E-02    0.465E-03
RMM:   2    -0.125707267874E+02   -0.32531E-06   -0.40210E-06    47   0.150E-02
    120 T=   157. E= -.92730951E+01 F= -.12570727E+02 E0= -.12506888E+02  EK= 0.60856E-01 SP= 0.28E+01 SK= 0.44E+00
       N       E                     dE             d eps       ncg     rms          rms(c)
RMM:   1    -0.125735536336E+02   -0.28272E-02   -0.80219E-05    63   0.353E-02    0.412E-03
RMM:   2    -0.125735539801E+02   -0.34653E-06   -0.51022E-06    43   0.158E-02
    121 T=   156. E= -.92730981E+01 F= -.12573554E+02 E0= -.12508815E+02  EK= 0.60560E-01 SP= 0.28E+01 SK= 0.42E+00
       N       E                     dE             d eps       ncg     rms          rms(c)
RMM:   1    -0.125762441340E+02   -0.26905E-02   -0.99035E-05    66   0.399E-02    0.423E-03
RMM:   2    -0.125762449871E+02   -0.85307E-06   -0.10598E-05    53   0.183E-02
    122 T=   155. E= -.92731033E+01 F= -.12576245E+02 E0= -.12510569E+02  EK= 0.60198E-01 SP= 0.28E+01 SK= 0.41E+00
       N       E                     dE             d eps       ncg     rms          rms(c)
RMM:   1    -0.125787803805E+02   -0.25362E-02   -0.12221E-04    67   0.382E-02    0.163E-03
RMM:   2    -0.125787815031E+02   -0.11227E-05   -0.10242E-05    52   0.179E-02
    123 T=   154. E= -.92731100E+01 F= -.12578782E+02 E0= -.12512135E+02  EK= 0.59755E-01 SP= 0.29E+01 SK= 0.39E+00
       N       E                     dE             d eps       ncg     rms          rms(c)
RMM:   1    -0.125811487574E+02   -0.23684E-02   -0.18991E-04    69   0.450E-02    0.269E-03
RMM:   2    -0.125811506130E+02   -0.18556E-05   -0.17575E-05    58   0.220E-02
    124 T=   153. E= -.92731170E+01 F= -.12581151E+02 E0= -.12513500E+02  EK= 0.59222E-01 SP= 0.29E+01 SK= 0.38E+00
       N       E                     dE             d eps       ncg     rms          rms(c)
RMM:   1    -0.125833449688E+02   -0.21962E-02   -0.16581E-04    67   0.425E-02    0.204E-03
RMM:   2    -0.125833466253E+02   -0.16565E-05   -0.15563E-05    58   0.207E-02
    125 T=   151. E= -.92731219E+01 F= -.12583347E+02 E0= -.12514650E+02  EK= 0.58600E-01 SP= 0.29E+01 SK= 0.36E+00
       N       E                     dE             d eps       ncg     rms          rms(c)
RMM:   1    -0.125853704533E+02   -0.20255E-02   -0.20493E-04    73   0.456E-02    0.251E-03
RMM:   2    -0.125853725262E+02   -0.20729E-05   -0.20458E-05    60   0.233E-02
    126 T=   149. E= -.92731251E+01 F= -.12585373E+02 E0= -.12515591E+02  EK= 0.57895E-01 SP= 0.29E+01 SK= 0.35E+00
       N       E                     dE             d eps       ncg     rms          rms(c)
RMM:   1    -0.125872390828E+02   -0.18686E-02   -0.14802E-04    67   0.403E-02    0.197E-03
RMM:   2    -0.125872405960E+02   -0.15132E-05   -0.14504E-05    51   0.198E-02
    127 T=   147. E= -.92731285E+01 F= -.12587241E+02 E0= -.12516334E+02  EK= 0.57118E-01 SP= 0.29E+01 SK= 0.34E+00
       N       E                     dE             d eps       ncg     rms          rms(c)
RMM:   1    -0.125889711596E+02   -0.17321E-02   -0.11446E-04    66   0.372E-02    0.260E-03
RMM:   2    -0.125889724129E+02   -0.12533E-05   -0.11510E-05    50   0.177E-02
    128 T=   145. E= -.92731306E+01 F= -.12588972E+02 E0= -.12516900E+02  EK= 0.56296E-01 SP= 0.29E+01 SK= 0.32E+00
       N       E                     dE             d eps       ncg     rms          rms(c)
RMM:   1    -0.125905953625E+02   -0.16242E-02   -0.14408E-04    70   0.409E-02    0.222E-03
RMM:   2    -0.125905969193E+02   -0.15568E-05   -0.15266E-05    55   0.198E-02
    129 T=   143. E= -.92731299E+01 F= -.12590597E+02 E0= -.12517315E+02  EK= 0.55457E-01 SP= 0.30E+01 SK= 0.31E+00
       N       E                     dE             d eps       ncg     rms          rms(c)
RMM:   1    -0.125921485094E+02   -0.15531E-02   -0.63832E-05    63   0.324E-02    0.256E-03
RMM:   2    -0.125921492401E+02   -0.73071E-06   -0.73877E-06    46   0.153E-02
    130 T=   141. E= -.92731280E+01 F= -.12592149E+02 E0= -.12517615E+02  EK= 0.54635E-01 SP= 0.30E+01 SK= 0.30E+00
       N       E                     dE             d eps       ncg     rms          rms(c)
RMM:   1    -0.125936667494E+02   -0.15182E-02   -0.14501E-04    70   0.394E-02    0.303E-03
RMM:   2    -0.125936681362E+02   -0.13869E-05   -0.12511E-05    48   0.187E-02
    131 T=   139. E= -.92731262E+01 F= -.12593668E+02 E0= -.12517839E+02  EK= 0.53864E-01 SP= 0.30E+01 SK= 0.28E+00
       N       E                     dE             d eps       ncg     rms          rms(c)
RMM:   1    -0.125951927236E+02   -0.15260E-02   -0.62673E-05    66   0.329E-02    0.370E-03
RMM:   2    -0.125951931707E+02   -0.44705E-06   -0.55414E-06    43   0.146E-02
    132 T=   137. E= -.92731246E+01 F= -.12595193E+02 E0= -.12518028E+02  EK= 0.53180E-01 SP= 0.30E+01 SK= 0.27E+00
       N       E                     dE             d eps       ncg     rms          rms(c)
RMM:   1    -0.125967613634E+02   -0.15686E-02   -0.99620E-05    66   0.359E-02    0.263E-03
RMM:   2    -0.125967624149E+02   -0.10516E-05   -0.10676E-05    51   0.172E-02
    133 T=   136. E= -.92731230E+01 F= -.12596762E+02 E0= -.12518218E+02  EK= 0.52614E-01 SP= 0.30E+01 SK= 0.26E+00
       N       E                     dE             d eps       ncg     rms          rms(c)
RMM:   1    -0.125984081368E+02   -0.16468E-02   -0.10906E-04    66   0.328E-02    0.249E-03
RMM:   2    -0.125984091300E+02   -0.99328E-06   -0.98706E-06    45   0.148E-02
    134 T=   135. E= -.92731217E+01 F= -.12598409E+02 E0= -.12518448E+02  EK= 0.52194E-01 SP= 0.30E+01 SK= 0.25E+00
       N       E                     dE             d eps       ncg     rms          rms(c)
RMM:   1    -0.126001591599E+02   -0.17510E-02   -0.11139E-04    67   0.330E-02    0.257E-03
RMM:   2    -0.126001602072E+02   -0.10473E-05   -0.10629E-05    44   0.162E-02
    135 T=   134. E= -.92731203E+01 F= -.12600160E+02 E0= -.12518744E+02  EK= 0.51941E-01 SP= 0.30E+01 SK= 0.24E+00
       N       E                     dE             d eps       ncg     rms          rms(c)
RMM:   1    -0.126020317078E+02   -0.18725E-02   -0.12607E-04    64   0.345E-02    0.380E-03
RMM:   2    -0.126020328763E+02   -0.11685E-05   -0.12751E-05    47   0.169E-02
    136 T=   134. E= -.92731188E+01 F= -.12602033E+02 E0= -.12519129E+02  EK= 0.51864E-01 SP= 0.31E+01 SK= 0.22E+00
       N       E                     dE             d eps       ncg     rms          rms(c)
RMM:   1    -0.126040315627E+02   -0.19999E-02   -0.21183E-04    68   0.371E-02    0.386E-03
RMM:   2    -0.126040334233E+02   -0.18606E-05   -0.18729E-05    46   0.173E-02
    137 T=   134. E= -.92731179E+01 F= -.12604033E+02 E0= -.12519615E+02  EK= 0.51962E-01 SP= 0.31E+01 SK= 0.21E+00
       N       E                     dE             d eps       ncg     rms          rms(c)
RMM:   1    -0.126061560466E+02   -0.21245E-02   -0.56443E-05    66   0.333E-02    0.263E-03
RMM:   2    -0.126061565939E+02   -0.54731E-06   -0.60621E-06    46   0.150E-02
    138 T=   135. E= -.92731175E+01 F= -.12606157E+02 E0= -.12520204E+02  EK= 0.52224E-01 SP= 0.31E+01 SK= 0.20E+00
       N       E                     dE             d eps       ncg     rms          rms(c)
RMM:   1    -0.126083830608E+02   -0.22270E-02   -0.10057E-04    64   0.318E-02    0.452E-03
RMM:   2    -0.126083839100E+02   -0.84925E-06   -0.96708E-06    42   0.155E-02
    139 T=   136. E= -.92731156E+01 F= -.12608384E+02 E0= -.12520884E+02  EK= 0.52629E-01 SP= 0.31E+01 SK= 0.19E+00
       N       E                     dE             d eps       ncg     rms          rms(c)
RMM:   1    -0.126106862006E+02   -0.23031E-02   -0.89793E-05    70   0.361E-02    0.331E-03
RMM:   2    -0.126106871662E+02   -0.96561E-06   -0.94106E-06    49   0.169E-02
    140 T=   137. E= -.92731140E+01 F= -.12610687E+02 E0= -.12521637E+02  EK= 0.53143E-01 SP= 0.31E+01 SK= 0.18E+00
       N       E                     dE             d eps       ncg     rms          rms(c)
RMM:   1    -0.126130278473E+02   -0.23416E-02   -0.13416E-04    65   0.364E-02    0.320E-03
RMM:   2    -0.126130287597E+02   -0.91244E-06   -0.10805E-05    42   0.166E-02
    141 T=   139. E= -.92731138E+01 F= -.12613029E+02 E0= -.12522433E+02  EK= 0.53725E-01 SP= 0.31E+01 SK= 0.17E+00
       N       E                     dE             d eps       ncg     rms          rms(c)
RMM:   1    -0.126153634656E+02   -0.23356E-02   -0.60794E-05    65   0.340E-02    0.296E-03
RMM:   2    -0.126153638991E+02   -0.43346E-06   -0.56096E-06    44   0.145E-02
    142 T=   140. E= -.92731142E+01 F= -.12615364E+02 E0= -.12523235E+02  EK= 0.54331E-01 SP= 0.31E+01 SK= 0.16E+00
       N       E                     dE             d eps       ncg     rms          rms(c)
RMM:   1    -0.126176418716E+02   -0.22784E-02   -0.80892E-05    68   0.356E-02    0.338E-03
RMM:   2    -0.126176425905E+02   -0.71899E-06   -0.80207E-06    45   0.160E-02
    143 T=   142. E= -.92731137E+01 F= -.12617643E+02 E0= -.12524005E+02  EK= 0.54912E-01 SP= 0.31E+01 SK= 0.15E+00
       N       E                     dE             d eps       ncg     rms          rms(c)
RMM:   1    -0.126198141481E+02   -0.21723E-02   -0.60175E-05    68   0.333E-02    0.487E-03
RMM:   2    -0.126198146835E+02   -0.53544E-06   -0.58621E-06    44   0.145E-02
    144 T=   143. E= -.92731127E+01 F= -.12619815E+02 E0= -.12524699E+02  EK= 0.55422E-01 SP= 0.31E+01 SK= 0.14E+00
       N       E                     dE             d eps       ncg     rms          rms(c)
RMM:   1    -0.126218308484E+02   -0.20167E-02   -0.66082E-05    66   0.316E-02    0.456E-03
RMM:   2    -0.126218313660E+02   -0.51768E-06   -0.54627E-06    44   0.144E-02
    145 T=   144. E= -.92731128E+01 F= -.12621831E+02 E0= -.12525284E+02  EK= 0.55813E-01 SP= 0.32E+01 SK= 0.13E+00
       N       E                     dE             d eps       ncg     rms          rms(c)
RMM:   1    -0.126236456159E+02   -0.18148E-02   -0.74739E-05    65   0.354E-02    0.533E-03
RMM:   2    -0.126236463196E+02   -0.70363E-06   -0.73505E-06    44   0.161E-02
    146 T=   145. E= -.92731125E+01 F= -.12623646E+02 E0= -.12525725E+02  EK= 0.56045E-01 SP= 0.32E+01 SK= 0.13E+00
       N       E                     dE             d eps       ncg     rms          rms(c)
RMM:   1    -0.126252194113E+02   -0.15738E-02   -0.12090E-04    68   0.355E-02    0.819E-03
RMM:   2    -0.126252202009E+02   -0.78955E-06   -0.94671E-06    43   0.161E-02
    147 T=   145. E= -.92731091E+01 F= -.12625220E+02 E0= -.12525986E+02  EK= 0.56087E-01 SP= 0.32E+01 SK= 0.12E+00
       N       E                     dE             d eps       ncg     rms          rms(c)
RMM:   1    -0.126265212435E+02   -0.13018E-02   -0.15955E-04    70   0.427E-02    0.662E-03
RMM:   2    -0.126265224011E+02   -0.11576E-05   -0.13971E-05    52   0.197E-02
    148 T=   144. E= -.92731057E+01 F= -.12626522E+02 E0= -.12526047E+02  EK= 0.55911E-01 SP= 0.32E+01 SK= 0.11E+00
       N       E                     dE             d eps       ncg     rms          rms(c)
RMM:   1    -0.126275304182E+02   -0.10092E-02   -0.15669E-04    70   0.393E-02    0.437E-03
RMM:   2    -0.126275314102E+02   -0.99198E-06   -0.12794E-05    48   0.186E-02
    149 T=   143. E= -.92731038E+01 F= -.12627531E+02 E0= -.12525890E+02  EK= 0.55500E-01 SP= 0.32E+01 SK= 0.10E+00
       N       E                     dE             d eps       ncg     rms          rms(c)
RMM:   1    -0.126282352667E+02   -0.70485E-03   -0.10446E-04    70   0.403E-02    0.240E-03
RMM:   2    -0.126282364336E+02   -0.11669E-05   -0.11771E-05    50   0.185E-02
    150 T=   141. E= -.92731002E+01 F= -.12628236E+02 E0= -.12525512E+02  EK= 0.54850E-01 SP= 0.32E+01 SK= 0.95E-01
       N       E                     dE             d eps       ncg     rms          rms(c)
RMM:   1    -0.126286376459E+02   -0.40238E-03   -0.64041E-05    67   0.318E-02    0.414E-03
RMM:   2    -0.126286380511E+02   -0.40526E-06   -0.43904E-06    41   0.138E-02
    151 T=   139. E= -.92730942E+01 F= -.12628638E+02 E0= -.12524917E+02  EK= 0.53969E-01 SP= 0.32E+01 SK= 0.88E-01
       N       E                     dE             d eps       ncg     rms          rms(c)
RMM:   1    -0.126287451325E+02   -0.10749E-03   -0.89460E-05    67   0.373E-02    0.434E-03
RMM:   2    -0.126287457149E+02   -0.58245E-06   -0.75405E-06    49   0.163E-02
    152 T=   136. E= -.92730872E+01 F= -.12628746E+02 E0= -.12524116E+02  EK= 0.52868E-01 SP= 0.32E+01 SK= 0.81E-01
       N       E                     dE             d eps       ncg     rms          rms(c)
RMM:   1    -0.126285769044E+02    0.16823E-03   -0.12143E-04    69   0.370E-02    0.513E-03
RMM:   2    -0.126285779385E+02   -0.10341E-05   -0.12197E-05    51   0.174E-02
    153 T=   133. E= -.92730800E+01 F= -.12628578E+02 E0= -.12523128E+02  EK= 0.51567E-01 SP= 0.32E+01 SK= 0.74E-01
       N       E                     dE             d eps       ncg     rms          rms(c)
RMM:   1    -0.126281597918E+02    0.41711E-03   -0.17116E-04    73   0.413E-02    0.377E-03
RMM:   2    -0.126281612000E+02   -0.14083E-05   -0.14246E-05    55   0.195E-02
    154 T=   129. E= -.92730733E+01 F= -.12628161E+02 E0= -.12521979E+02  EK= 0.50095E-01 SP= 0.32E+01 SK= 0.68E-01
       N       E                     dE             d eps       ncg     rms          rms(c)
RMM:   1    -0.126275260974E+02    0.63369E-03   -0.99846E-05    69   0.359E-02    0.323E-03
RMM:   2    -0.126275271913E+02   -0.10939E-05   -0.10667E-05    52   0.174E-02
    155 T=   125. E= -.92730677E+01 F= -.12627527E+02 E0= -.12520699E+02  EK= 0.48483E-01 SP= 0.32E+01 SK= 0.62E-01
       N       E                     dE             d eps       ncg     rms          rms(c)
RMM:   1    -0.126267089652E+02    0.81713E-03   -0.69810E-05    66   0.332E-02    0.175E-03
RMM:   2    -0.126267097866E+02   -0.82136E-06   -0.78573E-06    49   0.156E-02
    156 T=   121. E= -.92730615E+01 F= -.12626710E+02 E0= -.12519317E+02  EK= 0.46767E-01 SP= 0.33E+01 SK= 0.56E-01
       N       E                     dE             d eps       ncg     rms          rms(c)
RMM:   1    -0.126257442565E+02    0.96471E-03   -0.62627E-05    65   0.321E-02    0.111E-03
RMM:   2    -0.126257448752E+02   -0.61864E-06   -0.57440E-06    44   0.147E-02
    157 T=   116. E= -.92730552E+01 F= -.12625745E+02 E0= -.12517867E+02  EK= 0.44980E-01 SP= 0.33E+01 SK= 0.50E-01
       N       E                     dE             d eps       ncg     rms          rms(c)
RMM:   1    -0.126246673560E+02    0.10769E-02   -0.72197E-05    65   0.333E-02    0.318E-03
RMM:   2    -0.126246680371E+02   -0.68116E-06   -0.67644E-06    45   0.155E-02
    158 T=   111. E= -.92730491E+01 F= -.12624668E+02 E0= -.12516377E+02  EK= 0.43155E-01 SP= 0.33E+01 SK= 0.45E-01
       N       E                     dE             d eps       ncg     rms          rms(c)
RMM:   1    -0.126235138690E+02    0.11535E-02   -0.88022E-05    66   0.356E-02    0.276E-03
RMM:   2    -0.126235147299E+02   -0.86087E-06   -0.88919E-06    53   0.160E-02
    159 T=   107. E= -.92730439E+01 F= -.12623515E+02 E0= -.12514876E+02  EK= 0.41325E-01 SP= 0.33E+01 SK= 0.40E-01
       N       E                     dE             d eps       ncg     rms          rms(c)
RMM:   1    -0.126223168802E+02    0.11970E-02   -0.73173E-05    65   0.323E-02    0.344E-03
RMM:   2    -0.126223173702E+02   -0.49000E-06   -0.51252E-06    41   0.144E-02
    160 T=   102. E= -.92730388E+01 F= -.12622317E+02 E0= -.12513392E+02  EK= 0.39519E-01 SP= 0.33E+01 SK= 0.35E-01
       N       E                     dE             d eps       ncg     rms          rms(c)
RMM:   1    -0.126211060859E+02    0.12108E-02   -0.10283E-04    72   0.373E-02    0.194E-03
RMM:   2    -0.126211069972E+02   -0.91127E-06   -0.87787E-06    50   0.170E-02
    161 T=    97. E= -.92730349E+01 F= -.12621107E+02 E0= -.12511948E+02  EK= 0.37764E-01 SP= 0.33E+01 SK= 0.30E-01
       N       E                     dE             d eps       ncg     rms          rms(c)
RMM:   1    -0.126199115035E+02    0.11946E-02   -0.54492E-05    66   0.323E-02    0.245E-03
RMM:   2    -0.126199120359E+02   -0.53238E-06   -0.49014E-06    40   0.141E-02
    162 T=    93. E= -.92730320E+01 F= -.12619912E+02 E0= -.12510567E+02  EK= 0.36084E-01 SP= 0.33E+01 SK= 0.26E-01
       N       E                     dE             d eps       ncg     rms          rms(c)
RMM:   1    -0.126187576695E+02    0.11538E-02   -0.30012E-05    62   0.292E-02    0.359E-03
RMM:   2    -0.126187578211E+02   -0.15159E-06   -0.21833E-06    35   0.126E-02
    163 T=    89. E= -.92730289E+01 F= -.12618758E+02 E0= -.12509268E+02  EK= 0.34501E-01 SP= 0.33E+01 SK= 0.22E-01
       N       E                     dE             d eps       ncg     rms          rms(c)
RMM:   1    -0.126176664308E+02    0.10912E-02   -0.43559E-05    62   0.312E-02    0.291E-03
RMM:   2    -0.126176669838E+02   -0.55295E-06   -0.47980E-06    39   0.138E-02
    164 T=    85. E= -.92730257E+01 F= -.12617667E+02 E0= -.12508066E+02  EK= 0.33033E-01 SP= 0.33E+01 SK= 0.19E-01
       N       E                     dE             d eps       ncg     rms          rms(c)
RMM:   1    -0.126166592079E+02    0.10072E-02   -0.32694E-05    64   0.292E-02    0.223E-03
RMM:   2    -0.126166594245E+02   -0.21656E-06   -0.26162E-06    38   0.126E-02
    165 T=    82. E= -.92730229E+01 F= -.12616659E+02 E0= -.12506976E+02  EK= 0.31696E-01 SP= 0.33E+01 SK= 0.15E-01
       N       E                     dE             d eps       ncg     rms          rms(c)
RMM:   1    -0.126157516794E+02    0.90753E-03   -0.40641E-05    63   0.309E-02    0.222E-03
RMM:   2    -0.126157520531E+02   -0.37372E-06   -0.35064E-06    40   0.138E-02
    166 T=    79. E= -.92730211E+01 F= -.12615752E+02 E0= -.12506010E+02  EK= 0.30503E-01 SP= 0.33E+01 SK= 0.12E-01
       N       E                     dE             d eps       ncg     rms          rms(c)
RMM:   1    -0.126149587823E+02    0.79290E-03   -0.37489E-05    61   0.285E-02    0.429E-03
RMM:   2    -0.126149590266E+02   -0.24427E-06   -0.35737E-06    41   0.129E-02
    167 T=    76. E= -.92730200E+01 F= -.12614959E+02 E0= -.12505176E+02  EK= 0.29464E-01 SP= 0.33E+01 SK= 0.97E-02
       N       E                     dE             d eps       ncg     rms          rms(c)
RMM:   1    -0.126142912171E+02    0.66757E-03   -0.43468E-05    60   0.305E-02    0.344E-03
RMM:   2    -0.126142915678E+02   -0.35070E-06   -0.35588E-06    40   0.136E-02
    168 T=    74. E= -.92730194E+01 F= -.12614292E+02 E0= -.12504482E+02  EK= 0.28587E-01 SP= 0.33E+01 SK= 0.73E-02
       N       E                     dE             d eps       ncg     rms          rms(c)
RMM:   1    -0.126137577153E+02    0.53350E-03   -0.48977E-05    62   0.318E-02    0.190E-03
RMM:   2    -0.126137580682E+02   -0.35285E-06   -0.46964E-06    40   0.142E-02
    169 T=    72. E= -.92730195E+01 F= -.12613758E+02 E0= -.12503933E+02  EK= 0.27877E-01 SP= 0.33E+01 SK= 0.53E-02
       N       E                     dE             d eps       ncg     rms          rms(c)
RMM:   1    -0.126133638926E+02    0.39382E-03   -0.30604E-05    60   0.291E-02    0.298E-03
RMM:   2    -0.126133641641E+02   -0.27154E-06   -0.21560E-06    38   0.122E-02
    170 T=    71. E= -.92730197E+01 F= -.12613364E+02 E0= -.12503531E+02  EK= 0.27339E-01 SP= 0.33E+01 SK= 0.36E-02
       N       E                     dE             d eps       ncg     rms          rms(c)
RMM:   1    -0.126131121331E+02    0.25176E-03   -0.45670E-05    61   0.296E-02    0.354E-03
RMM:   2    -0.126131124593E+02   -0.32620E-06   -0.43686E-06    39   0.136E-02
    171 T=    70. E= -.92730196E+01 F= -.12613112E+02 E0= -.12503275E+02  EK= 0.26973E-01 SP= 0.33E+01 SK= 0.22E-02
       N       E                     dE             d eps       ncg     rms          rms(c)
RMM:   1    -0.126130029004E+02    0.10923E-03   -0.32821E-05    62   0.290E-02    0.283E-03
RMM:   2    -0.126130033213E+02   -0.42088E-06   -0.41460E-06    46   0.137E-02
    172 T=    69. E= -.92730201E+01 F= -.12613003E+02 E0= -.12503166E+02  EK= 0.26778E-01 SP= 0.33E+01 SK= 0.11E-02
       N       E                     dE             d eps       ncg     rms          rms(c)
RMM:   1    -0.126130335084E+02   -0.30608E-04   -0.27835E-05    59   0.260E-02    0.210E-03
RMM:   2    -0.126130335492E+02   -0.40825E-07   -0.88973E-07    31   0.114E-02
    173 T=    69. E= -.92730209E+01 F= -.12613034E+02 E0= -.12503197E+02  EK= 0.26750E-01 SP= 0.33E+01 SK= 0.44E-03
       N       E                     dE             d eps       ncg     rms          rms(c)
RMM:   1    -0.126131968377E+02   -0.16333E-03   -0.35125E-05    59   0.312E-02    0.218E-03
RMM:   2    -0.126131972009E+02   -0.36328E-06   -0.36716E-06    41   0.136E-02
    174 T=    69. E= -.92730223E+01 F= -.12613197E+02 E0= -.12503361E+02  EK= 0.26881E-01 SP= 0.33E+01 SK= 0.65E-04
       N       E                     dE             d eps       ncg     rms          rms(c)
RMM:   1    -0.126134844958E+02   -0.28766E-03   -0.41322E-05    64   0.292E-02    0.324E-03
RMM:   2    -0.126134846225E+02   -0.12671E-06   -0.26186E-06    37   0.128E-02
    175 T=    70. E= -.92730241E+01 F= -.12613485E+02 E0= -.12503649E+02  EK= 0.27164E-01 SP= 0.33E+01 SK= 0.24E-04
       N       E                     dE             d eps       ncg     rms          rms(c)
RMM:   1    -0.126138817455E+02   -0.39725E-03   -0.35602E-05    60   0.294E-02    0.206E-03
RMM:   2    -0.126138821022E+02   -0.35669E-06   -0.34763E-06    39   0.134E-02
    176 T=    71. E= -.92730261E+01 F= -.12613882E+02 E0= -.12504046E+02  EK= 0.27584E-01 SP= 0.33E+01 SK= 0.32E-03
       N       E                     dE             d eps       ncg     rms          rms(c)
RMM:   1    -0.126143719467E+02   -0.49020E-03   -0.63413E-05    62   0.303E-02    0.299E-03
RMM:   2    -0.126143722040E+02   -0.25728E-06   -0.49381E-06    40   0.139E-02
    177 T=    73. E= -.92730293E+01 F= -.12614372E+02 E0= -.12504534E+02  EK= 0.28124E-01 SP= 0.33E+01 SK= 0.94E-03
       N       E                     dE             d eps       ncg     rms          rms(c)
RMM:   1    -0.126149326653E+02   -0.56072E-03   -0.32145E-05    60   0.294E-02    0.194E-03
RMM:   2    -0.126149329413E+02   -0.27596E-06   -0.22264E-06    33   0.127E-02
    178 T=    74. E= -.92730332E+01 F= -.12614933E+02 E0= -.12505092E+02  EK= 0.28764E-01 SP= 0.33E+01 SK= 0.19E-02
       N       E                     dE             d eps       ncg     rms          rms(c)
RMM:   1    -0.126155375870E+02   -0.60492E-03   -0.49059E-05    60   0.315E-02    0.436E-03
RMM:   2    -0.126155379445E+02   -0.35744E-06   -0.46618E-06    42   0.147E-02
    179 T=    76. E= -.92730365E+01 F= -.12615538E+02 E0= -.12505693E+02  EK= 0.29480E-01 SP= 0.33E+01 SK= 0.32E-02
       N       E                     dE             d eps       ncg     rms          rms(c)
RMM:   1    -0.126161566642E+02   -0.61908E-03   -0.49810E-05    64   0.304E-02    0.228E-03
RMM:   2    -0.126161570707E+02   -0.40660E-06   -0.42478E-06    38   0.138E-02
    180 T=    78. E= -.92730404E+01 F= -.12616157E+02 E0= -.12506308E+02  EK= 0.30243E-01 SP= 0.33E+01 SK= 0.48E-02
       N       E                     dE             d eps       ncg     rms          rms(c)
RMM:   1    -0.126167559686E+02   -0.59930E-03   -0.30225E-05    60   0.291E-02    0.199E-03
RMM:   2    -0.126167562380E+02   -0.26939E-06   -0.26568E-06    37   0.132E-02
    181 T=    80. E= -.92730443E+01 F= -.12616756E+02 E0= -.12506902E+02  EK= 0.31021E-01 SP= 0.33E+01 SK= 0.67E-02
       N       E                     dE             d eps       ncg     rms          rms(c)
RMM:   1    -0.126172986187E+02   -0.54265E-03   -0.47044E-05    64   0.294E-02    0.214E-03
RMM:   2    -0.126172990119E+02   -0.39322E-06   -0.40230E-06    42   0.136E-02
    182 T=    82. E= -.92730486E+01 F= -.12617299E+02 E0= -.12507442E+02  EK= 0.31778E-01 SP= 0.33E+01 SK= 0.90E-02
       N       E                     dE             d eps       ncg     rms          rms(c)
RMM:   1    -0.126177479308E+02   -0.44931E-03   -0.22983E-05    62   0.286E-02    0.269E-03
RMM:   2    -0.126177480252E+02   -0.94391E-07   -0.16949E-06    34   0.126E-02
    183 T=    84. E= -.92730542E+01 F= -.12617748E+02 E0= -.12507889E+02  EK= 0.32477E-01 SP= 0.33E+01 SK= 0.12E-01
       N       E                     dE             d eps       ncg     rms          rms(c)
RMM:   1    -0.126180664840E+02   -0.31855E-03   -0.23814E-05    62   0.267E-02    0.361E-03
RMM:   2    -0.126180665958E+02   -0.11179E-06   -0.83465E-07    32   0.119E-02
    184 T=    85. E= -.92730599E+01 F= -.12618067E+02 E0= -.12508208E+02  EK= 0.33083E-01 SP= 0.33E+01 SK= 0.14E-01
       N       E                     dE             d eps       ncg     rms          rms(c)
RMM:   1    -0.126182211985E+02   -0.15471E-03   -0.44946E-05    62   0.321E-02    0.282E-03
RMM:   2    -0.126182215502E+02   -0.35170E-06   -0.50030E-06    45   0.147E-02
    185 T=    87. E= -.92730645E+01 F= -.12618222E+02 E0= -.12508369E+02  EK= 0.33565E-01 SP= 0.33E+01 SK= 0.18E-01
       N       E                     dE             d eps       ncg     rms          rms(c)
RMM:   1    -0.126181846830E+02    0.36516E-04   -0.33154E-05    61   0.285E-02    0.333E-03
RMM:   2    -0.126181849155E+02   -0.23249E-06   -0.23796E-06    36   0.129E-02
    186 T=    87. E= -.92730667E+01 F= -.12618185E+02 E0= -.12508343E+02  EK= 0.33895E-01 SP= 0.33E+01 SK= 0.21E-01
       N       E                     dE             d eps       ncg     rms          rms(c)
RMM:   1    -0.126179361709E+02    0.24851E-03   -0.60824E-05    65   0.335E-02    0.202E-03
RMM:   2    -0.126179366912E+02   -0.52029E-06   -0.52722E-06    46   0.156E-02
    187 T=    88. E= -.92730684E+01 F= -.12617937E+02 E0= -.12508112E+02  EK= 0.34050E-01 SP= 0.33E+01 SK= 0.25E-01
       N       E                     dE             d eps       ncg     rms          rms(c)
RMM:   1    -0.126174672278E+02    0.46894E-03   -0.27289E-05    62   0.286E-02    0.269E-03
RMM:   2    -0.126174675281E+02   -0.30025E-06   -0.29551E-06    44   0.131E-02
    188 T=    88. E= -.92730709E+01 F= -.12617468E+02 E0= -.12507670E+02  EK= 0.34018E-01 SP= 0.33E+01 SK= 0.29E-01
       N       E                     dE             d eps       ncg     rms          rms(c)
RMM:   1    -0.126167795372E+02    0.68769E-03   -0.23256E-05    64   0.284E-02    0.477E-03
RMM:   2    -0.126167797101E+02   -0.17293E-06   -0.21056E-06    40   0.131E-02
    189 T=    87. E= -.92730732E+01 F= -.12616780E+02 E0= -.12507019E+02  EK= 0.33800E-01 SP= 0.33E+01 SK= 0.34E-01
       N       E                     dE             d eps       ncg     rms          rms(c)
RMM:   1    -0.126158891210E+02    0.89042E-03   -0.25182E-05    59   0.291E-02    0.217E-03
RMM:   2    -0.126158894419E+02   -0.32088E-06   -0.33799E-06    40   0.136E-02
    190 T=    86. E= -.92730747E+01 F= -.12615889E+02 E0= -.12506178E+02  EK= 0.33409E-01 SP= 0.33E+01 SK= 0.38E-01
       N       E                     dE             d eps       ncg     rms          rms(c)
RMM:   1    -0.126148258904E+02    0.10632E-02   -0.24546E-05    62   0.260E-02    0.259E-03
RMM:   2    -0.126148261026E+02   -0.21221E-06   -0.16005E-06    37   0.121E-02
    191 T=    85. E= -.92730742E+01 F= -.12614826E+02 E0= -.12505177E+02  EK= 0.32873E-01 SP= 0.33E+01 SK= 0.44E-01
       N       E                     dE             d eps       ncg     rms          rms(c)
RMM:   1    -0.126136325302E+02    0.11934E-02   -0.35854E-05    65   0.319E-02    0.323E-03
RMM:   2    -0.126136330093E+02   -0.47911E-06   -0.45564E-06    45   0.153E-02
    192 T=    83. E= -.92730728E+01 F= -.12613633E+02 E0= -.12504063E+02  EK= 0.32232E-01 SP= 0.33E+01 SK= 0.49E-01
       N       E                     dE             d eps       ncg     rms          rms(c)
RMM:   1    -0.126123648312E+02    0.12677E-02   -0.35391E-05    63   0.283E-02    0.165E-03
RMM:   2    -0.126123650612E+02   -0.23000E-06   -0.28349E-06    39   0.132E-02
    193 T=    81. E= -.92730714E+01 F= -.12612365E+02 E0= -.12502890E+02  EK= 0.31536E-01 SP= 0.33E+01 SK= 0.55E-01
       N       E                     dE             d eps       ncg     rms          rms(c)
RMM:   1    -0.126110858775E+02    0.12790E-02   -0.48202E-05    63   0.322E-02    0.196E-03
RMM:   2    -0.126110864273E+02   -0.54984E-06   -0.54130E-06    45   0.150E-02
    194 T=    80. E= -.92730691E+01 F= -.12611086E+02 E0= -.12501726E+02  EK= 0.30849E-01 SP= 0.32E+01 SK= 0.61E-01
       N       E                     dE             d eps       ncg     rms          rms(c)
RMM:   1    -0.126098664831E+02    0.12194E-02   -0.24133E-05    62   0.266E-02    0.373E-03
RMM:   2    -0.126098666534E+02   -0.17028E-06   -0.23039E-06    39   0.124E-02
    195 T=    78. E= -.92730667E+01 F= -.12609867E+02 E0= -.12500640E+02  EK= 0.30240E-01 SP= 0.32E+01 SK= 0.67E-01
       N       E                     dE             d eps       ncg     rms          rms(c)
RMM:   1    -0.126087763075E+02    0.10902E-02   -0.32549E-05    63   0.296E-02    0.386E-03
RMM:   2    -0.126087767695E+02   -0.46198E-06   -0.37172E-06    46   0.142E-02
    196 T=    77. E= -.92730646E+01 F= -.12608777E+02 E0= -.12499705E+02  EK= 0.29780E-01 SP= 0.32E+01 SK= 0.74E-01
       N       E                     dE             d eps       ncg     rms          rms(c)
RMM:   1    -0.126078842707E+02    0.89204E-03   -0.26943E-05    62   0.281E-02    0.206E-03
RMM:   2    -0.126078844582E+02   -0.18750E-06   -0.26899E-06    41   0.128E-02
    197 T=    76. E= -.92730628E+01 F= -.12607884E+02 E0= -.12498989E+02  EK= 0.29539E-01 SP= 0.32E+01 SK= 0.81E-01
       N       E                     dE             d eps       ncg     rms          rms(c)
RMM:   1    -0.126072482551E+02    0.63602E-03   -0.28440E-05    62   0.283E-02    0.364E-03
RMM:   2    -0.126072485005E+02   -0.24538E-06   -0.27142E-06    40   0.129E-02
    198 T=    76. E= -.92730614E+01 F= -.12607249E+02 E0= -.12498552E+02  EK= 0.29582E-01 SP= 0.32E+01 SK= 0.89E-01
       N       E                     dE             d eps       ncg     rms          rms(c)
RMM:   1    -0.126069138919E+02    0.33436E-03   -0.34661E-05    63   0.293E-02    0.466E-03
RMM:   2    -0.126069143587E+02   -0.46683E-06   -0.46404E-06    43   0.142E-02
    199 T=    77. E= -.92730607E+01 F= -.12606914E+02 E0= -.12498439E+02  EK= 0.29961E-01 SP= 0.32E+01 SK= 0.97E-01
       N       E                     dE             d eps       ncg     rms          rms(c)
RMM:   1    -0.126069102226E+02    0.36693E-05   -0.39447E-05    62   0.282E-02    0.328E-03
RMM:   2    -0.126069105477E+02   -0.32511E-06   -0.32999E-06    44   0.134E-02
    200 T=    79. E= -.92730617E+01 F= -.12606911E+02 E0= -.12498678E+02  EK= 0.30712E-01 SP= 0.32E+01 SK= 0.10E+00
       N       E                     dE             d eps       ncg     rms          rms(c)
RMM:   1    -0.126072447656E+02   -0.33454E-03   -0.37550E-05    63   0.291E-02    0.130E-03
RMM:   2    -0.126072450863E+02   -0.32075E-06   -0.33416E-06    42   0.136E-02
    201 T=    82. E= -.92730633E+01 F= -.12607245E+02 E0= -.12499279E+02  EK= 0.31856E-01 SP= 0.32E+01 SK= 0.11E+00
       N       E                     dE             d eps       ncg     rms          rms(c)
RMM:   1    -0.126079050778E+02   -0.66031E-03   -0.64956E-05    68   0.321E-02    0.591E-03
RMM:   2    -0.126079057509E+02   -0.67308E-06   -0.58175E-06    47   0.155E-02
    202 T=    86. E= -.92730652E+01 F= -.12607906E+02 E0= -.12500229E+02  EK= 0.33393E-01 SP= 0.32E+01 SK= 0.12E+00
       N       E                     dE             d eps       ncg     rms          rms(c)
RMM:   1    -0.126088581833E+02   -0.95311E-03   -0.66131E-05    65   0.283E-02    0.256E-03
RMM:   2    -0.126088587320E+02   -0.54863E-06   -0.54770E-06    38   0.137E-02
    203 T=    91. E= -.92730683E+01 F= -.12608859E+02 E0= -.12501493E+02  EK= 0.35302E-01 SP= 0.32E+01 SK= 0.13E+00
       N       E                     dE             d eps       ncg     rms          rms(c)
RMM:   1    -0.126100500464E+02   -0.11919E-02   -0.77789E-05    67   0.331E-02    0.247E-03
RMM:   2    -0.126100508946E+02   -0.84824E-06   -0.80133E-06    46   0.159E-02
    204 T=    97. E= -.92730731E+01 F= -.12610051E+02 E0= -.12503019E+02  EK= 0.37541E-01 SP= 0.32E+01 SK= 0.14E+00
       N       E                     dE             d eps       ncg     rms          rms(c)
RMM:   1    -0.126114121837E+02   -0.13621E-02   -0.62008E-05    63   0.309E-02    0.361E-03
RMM:   2    -0.126114129307E+02   -0.74701E-06   -0.75600E-06    44   0.155E-02
    205 T=   103. E= -.92730786E+01 F= -.12611413E+02 E0= -.12504739E+02  EK= 0.40056E-01 SP= 0.31E+01 SK= 0.15E+00
       N       E                     dE             d eps       ncg     rms          rms(c)
[...]
    948 T=   615. E= -.92664805E+01 F= -.12288865E+02 E0= -.12246457E+02  EK= 0.23863E+00 SP= 0.23E+01 SK= 0.44E+00
       N       E                     dE             d eps       ncg     rms          rms(c)
RMM:   1    -0.122938697906E+02   -0.50068E-02   -0.36646E-04    78   0.604E-02    0.410E-03
RMM:   2    -0.122938732857E+02   -0.34951E-05   -0.35706E-05    56   0.286E-02
    949 T=   597. E= -.92664987E+01 F= -.12293873E+02 E0= -.12252920E+02  EK= 0.23144E+00 SP= 0.24E+01 SK= 0.43E+00
       N       E                     dE             d eps       ncg     rms          rms(c)
RMM:   1    -0.122964708448E+02   -0.26011E-02   -0.42627E-04    82   0.629E-02    0.299E-03
RMM:   2    -0.122964747140E+02   -0.38692E-05   -0.38319E-05    61   0.308E-02
    950 T=   573. E= -.92665009E+01 F= -.12296475E+02 E0= -.12256907E+02  EK= 0.22236E+00 SP= 0.24E+01 SK= 0.43E+00
       N       E                     dE             d eps       ncg     rms          rms(c)
RMM:   1    -0.122970005847E+02   -0.52974E-03   -0.43454E-04    79   0.613E-02    0.495E-03
RMM:   2    -0.122970045983E+02   -0.40135E-05   -0.40512E-05    59   0.305E-02
    951 T=   546. E= -.92664892E+01 F= -.12297005E+02 E0= -.12258719E+02  EK= 0.21183E+00 SP= 0.24E+01 SK= 0.42E+00
       N       E                     dE             d eps       ncg     rms          rms(c)
RMM:   1    -0.122960121080E+02    0.98848E-03   -0.39439E-04    77   0.602E-02    0.454E-03
RMM:   2    -0.122960160734E+02   -0.39654E-05   -0.38768E-05    58   0.302E-02
    952 T=   517. E= -.92664638E+01 F= -.12296016E+02 E0= -.12258876E+02  EK= 0.20044E+00 SP= 0.24E+01 SK= 0.41E+00
       N       E                     dE             d eps       ncg     rms          rms(c)
RMM:   1    -0.122942110563E+02    0.18011E-02   -0.60386E-04    78   0.683E-02    0.412E-03
RMM:   2    -0.122942165507E+02   -0.54943E-05   -0.55992E-05    62   0.340E-02
    953 T=   487. E= -.92664293E+01 F= -.12294217E+02 E0= -.12258096E+02  EK= 0.18892E+00 SP= 0.24E+01 SK= 0.40E+00
       N       E                     dE             d eps       ncg     rms          rms(c)
RMM:   1    -0.122923788192E+02    0.18322E-02   -0.83146E-04    81   0.767E-02    0.394E-03
RMM:   2    -0.122923867817E+02   -0.79625E-05   -0.78165E-05    62   0.393E-02
    954 T=   459. E= -.92663958E+01 F= -.12292387E+02 E0= -.12257138E+02  EK= 0.17803E+00 SP= 0.25E+01 SK= 0.40E+00
       N       E                     dE             d eps       ncg     rms          rms(c)
RMM:   1    -0.122912858647E+02    0.10930E-02   -0.59776E-04    83   0.733E-02    0.252E-03
RMM:   2    -0.122912918854E+02   -0.60207E-05   -0.59035E-05    61   0.369E-02
    955 T=   434. E= -.92663649E+01 F= -.12291292E+02 E0= -.12256765E+02  EK= 0.16847E+00 SP= 0.25E+01 SK= 0.39E+00
       N       E                     dE             d eps       ncg     rms          rms(c)
RMM:   1    -0.122915890729E+02   -0.30321E-03   -0.52231E-04    81   0.697E-02    0.265E-03
RMM:   2    -0.122915938878E+02   -0.48148E-05   -0.49976E-05    61   0.345E-02
    956 T=   415. E= -.92663364E+01 F= -.12291594E+02 E0= -.12257651E+02  EK= 0.16083E+00 SP= 0.25E+01 SK= 0.38E+00
       N       E                     dE             d eps       ncg     rms          rms(c)
RMM:   1    -0.122937801518E+02   -0.21911E-02   -0.63253E-04    81   0.753E-02    0.337E-03
RMM:   2    -0.122937863868E+02   -0.62350E-05   -0.60865E-05    62   0.378E-02
    957 T=   401. E= -.92663208E+01 F= -.12293786E+02 E0= -.12260284E+02  EK= 0.15547E+00 SP= 0.25E+01 SK= 0.37E+00
       N       E                     dE             d eps       ncg     rms          rms(c)
RMM:   1    -0.122981504437E+02   -0.43703E-02   -0.43085E-04    77   0.656E-02    0.338E-03
RMM:   2    -0.122981546954E+02   -0.42517E-05   -0.41263E-05    56   0.314E-02
    958 T=   393. E= -.92663251E+01 F= -.12298155E+02 E0= -.12264965E+02  EK= 0.15255E+00 SP= 0.25E+01 SK= 0.36E+00
       N       E                     dE             d eps       ncg     rms          rms(c)
RMM:   1    -0.123047575273E+02   -0.66071E-02   -0.25118E-04    72   0.568E-02    0.359E-03
RMM:   2    -0.123047603856E+02   -0.28583E-05   -0.26962E-05    57   0.276E-02
    959 T=   392. E= -.92663411E+01 F= -.12304760E+02 E0= -.12271749E+02  EK= 0.15204E+00 SP= 0.25E+01 SK= 0.35E+00
       N       E                     dE             d eps       ncg     rms          rms(c)
RMM:   1    -0.123134601685E+02   -0.87026E-02   -0.21004E-04    74   0.535E-02    0.216E-03
RMM:   2    -0.123134624596E+02   -0.22911E-05   -0.22348E-05    55   0.257E-02
    960 T=   396. E= -.92663644E+01 F= -.12313462E+02 E0= -.12280499E+02  EK= 0.15369E+00 SP= 0.26E+01 SK= 0.34E+00
       N       E                     dE             d eps       ncg     rms          rms(c)
RMM:   1    -0.123239502047E+02   -0.10490E-01   -0.14768E-04    68   0.485E-02    0.358E-03
RMM:   2    -0.123239518269E+02   -0.16222E-05   -0.16470E-05    54   0.234E-02
    961 T=   405. E= -.92663962E+01 F= -.12323952E+02 E0= -.12290920E+02  EK= 0.15709E+00 SP= 0.26E+01 SK= 0.33E+00
       N       E                     dE             d eps       ncg     rms          rms(c)
RMM:   1    -0.123358020825E+02   -0.11852E-01   -0.14978E-04    69   0.451E-02    0.392E-03
RMM:   2    -0.123358036395E+02   -0.15570E-05   -0.14963E-05    54   0.212E-02
    962 T=   417. E= -.92664313E+01 F= -.12335804E+02 E0= -.12302576E+02  EK= 0.16177E+00 SP= 0.26E+01 SK= 0.32E+00
       N       E                     dE             d eps       ncg     rms          rms(c)
RMM:   1    -0.123485298865E+02   -0.12728E-01   -0.13471E-04    70   0.444E-02    0.439E-03
RMM:   2    -0.123485314266E+02   -0.15401E-05   -0.14172E-05    51   0.210E-02
    963 T=   431. E= -.92664655E+01 F= -.12348531E+02 E0= -.12314981E+02  EK= 0.16720E+00 SP= 0.26E+01 SK= 0.31E+00
       N       E                     dE             d eps       ncg     rms          rms(c)
RMM:   1    -0.123616363558E+02   -0.13106E-01   -0.16164E-04    73   0.470E-02    0.808E-03
RMM:   2    -0.123616379097E+02   -0.15539E-05   -0.16868E-05    55   0.231E-02
    964 T=   446. E= -.92664973E+01 F= -.12361638E+02 E0= -.12327644E+02  EK= 0.17286E+00 SP= 0.26E+01 SK= 0.31E+00
       N       E                     dE             d eps       ncg     rms          rms(c)
RMM:   1    -0.123746539251E+02   -0.13018E-01   -0.15952E-04    75   0.458E-02    0.761E-03
RMM:   2    -0.123746556422E+02   -0.17171E-05   -0.16106E-05    59   0.224E-02
    965 T=   460. E= -.92665238E+01 F= -.12374656E+02 E0= -.12340084E+02  EK= 0.17830E+00 SP= 0.26E+01 SK= 0.30E+00
       N       E                     dE             d eps       ncg     rms          rms(c)
RMM:   1    -0.123871765524E+02   -0.12523E-01   -0.14287E-04    73   0.438E-02    0.346E-03
RMM:   2    -0.123871780812E+02   -0.15288E-05   -0.13769E-05    53   0.204E-02
    966 T=   472. E= -.92665454E+01 F= -.12387178E+02 E0= -.12351887E+02  EK= 0.18312E+00 SP= 0.26E+01 SK= 0.29E+00
       N       E                     dE             d eps       ncg     rms          rms(c)
RMM:   1    -0.123988717799E+02   -0.11695E-01   -0.23236E-04    77   0.525E-02    0.362E-03
RMM:   2    -0.123988739208E+02   -0.21408E-05   -0.21164E-05    59   0.250E-02
    967 T=   482. E= -.92665635E+01 F= -.12398874E+02 E0= -.12362736E+02  EK= 0.18704E+00 SP= 0.27E+01 SK= 0.28E+00
       N       E                     dE             d eps       ncg     rms          rms(c)
RMM:   1    -0.124094843694E+02   -0.10613E-01   -0.31839E-04    81   0.558E-02    0.287E-03
RMM:   2    -0.124094877519E+02   -0.33826E-05   -0.31704E-05    57   0.277E-02
    968 T=   490. E= -.92665770E+01 F= -.12409488E+02 E0= -.12372375E+02  EK= 0.18983E+00 SP= 0.27E+01 SK= 0.28E+00
       N       E                     dE             d eps       ncg     rms          rms(c)
RMM:   1    -0.124188292710E+02   -0.93449E-02   -0.43522E-04    79   0.646E-02    0.211E-03
RMM:   2    -0.124188337615E+02   -0.44905E-05   -0.42886E-05    59   0.333E-02
    969 T=   494. E= -.92665866E+01 F= -.12418834E+02 E0= -.12380618E+02  EK= 0.19137E+00 SP= 0.27E+01 SK= 0.27E+00
       N       E                     dE             d eps       ncg     rms          rms(c)
RMM:   1    -0.124267776075E+02   -0.79483E-02   -0.41754E-04    83   0.646E-02    0.265E-03
RMM:   2    -0.124267819409E+02   -0.43334E-05   -0.42006E-05    61   0.337E-02
    970 T=   494. E= -.92665941E+01 F= -.12426782E+02 E0= -.12387356E+02  EK= 0.19158E+00 SP= 0.27E+01 SK= 0.26E+00
       N       E                     dE             d eps       ncg     rms          rms(c)
RMM:   1    -0.124332418328E+02   -0.64642E-02   -0.38428E-04    83   0.633E-02    0.279E-03
RMM:   2    -0.124332461242E+02   -0.42914E-05   -0.41284E-05    62   0.333E-02
    971 T=   491. E= -.92665983E+01 F= -.12433246E+02 E0= -.12392528E+02  EK= 0.19042E+00 SP= 0.27E+01 SK= 0.26E+00
       N       E                     dE             d eps       ncg     rms          rms(c)
RMM:   1    -0.124381728543E+02   -0.49310E-02   -0.41061E-04    83   0.642E-02    0.275E-03
RMM:   2    -0.124381772342E+02   -0.43799E-05   -0.41980E-05    59   0.333E-02
    972 T=   485. E= -.92666014E+01 F= -.12438177E+02 E0= -.12396096E+02  EK= 0.18790E+00 SP= 0.27E+01 SK= 0.25E+00
       N       E                     dE             d eps       ncg     rms          rms(c)
RMM:   1    -0.124415523203E+02   -0.33795E-02   -0.38977E-04    80   0.616E-02    0.278E-03
RMM:   2    -0.124415562286E+02   -0.39082E-05   -0.37193E-05    61   0.309E-02
    973 T=   475. E= -.92666041E+01 F= -.12441556E+02 E0= -.12398073E+02  EK= 0.18405E+00 SP= 0.27E+01 SK= 0.24E+00
       N       E                     dE             d eps       ncg     rms          rms(c)
RMM:   1    -0.124433919469E+02   -0.18396E-02   -0.38958E-04    77   0.586E-02    0.313E-03
RMM:   2    -0.124433957955E+02   -0.38486E-05   -0.37743E-05    59   0.298E-02
    974 T=   461. E= -.92666053E+01 F= -.12443396E+02 E0= -.12398505E+02  EK= 0.17893E+00 SP= 0.28E+01 SK= 0.24E+00
       N       E                     dE             d eps       ncg     rms          rms(c)
RMM:   1    -0.124437384819E+02   -0.34654E-03   -0.37519E-04    77   0.584E-02    0.403E-03
RMM:   2    -0.124437427921E+02   -0.43102E-05   -0.42067E-05    60   0.304E-02
    975 T=   445. E= -.92666016E+01 F= -.12443743E+02 E0= -.12397456E+02  EK= 0.17264E+00 SP= 0.28E+01 SK= 0.23E+00
       N       E                     dE             d eps       ncg     rms          rms(c)
RMM:   1    -0.124426819801E+02    0.10565E-02   -0.25899E-04    76   0.526E-02    0.322E-03
RMM:   2    -0.124426845619E+02   -0.25819E-05   -0.24343E-05    57   0.256E-02
    976 T=   426. E= -.92665948E+01 F= -.12442685E+02 E0= -.12395049E+02  EK= 0.16530E+00 SP= 0.28E+01 SK= 0.22E+00
       N       E                     dE             d eps       ncg     rms          rms(c)
RMM:   1    -0.124403441018E+02    0.23379E-02   -0.24136E-04    70   0.527E-02    0.290E-03
RMM:   2    -0.124403468262E+02   -0.27243E-05   -0.27777E-05    59   0.266E-02
    977 T=   405. E= -.92665844E+01 F= -.12440347E+02 E0= -.12391431E+02  EK= 0.15707E+00 SP= 0.28E+01 SK= 0.21E+00
       N       E                     dE             d eps       ncg     rms          rms(c)
RMM:   1    -0.124368908327E+02    0.34533E-02   -0.17689E-04    73   0.454E-02    0.286E-03
RMM:   2    -0.124368927856E+02   -0.19528E-05   -0.18939E-05    58   0.223E-02
    978 T=   382. E= -.92665700E+01 F= -.12436893E+02 E0= -.12386788E+02  EK= 0.14813E+00 SP= 0.28E+01 SK= 0.21E+00
       N       E                     dE             d eps       ncg     rms          rms(c)
RMM:   1    -0.124325125039E+02    0.43783E-02   -0.32257E-04    78   0.584E-02    0.201E-03
RMM:   2    -0.124325156468E+02   -0.31430E-05   -0.30118E-05    60   0.298E-02
    979 T=   358. E= -.92665545E+01 F= -.12432516E+02 E0= -.12381324E+02  EK= 0.13870E+00 SP= 0.28E+01 SK= 0.20E+00
       N       E                     dE             d eps       ncg     rms          rms(c)
RMM:   1    -0.124274234503E+02    0.50891E-02   -0.39700E-04    82   0.624E-02    0.183E-03
RMM:   2    -0.124274272707E+02   -0.38204E-05   -0.36688E-05    57   0.313E-02
    980 T=   333. E= -.92665385E+01 F= -.12427427E+02 E0= -.12375269E+02  EK= 0.12898E+00 SP= 0.28E+01 SK= 0.19E+00
       N       E                     dE             d eps       ncg     rms          rms(c)
RMM:   1    -0.124218497735E+02    0.55737E-02   -0.43766E-04    84   0.665E-02    0.262E-03
RMM:   2    -0.124218542798E+02   -0.45063E-05   -0.43771E-05    57   0.342E-02
    981 T=   307. E= -.92665239E+01 F= -.12421854E+02 E0= -.12368858E+02  EK= 0.11920E+00 SP= 0.29E+01 SK= 0.18E+00
       N       E                     dE             d eps       ncg     rms          rms(c)
RMM:   1    -0.124160252990E+02    0.58245E-02   -0.15258E-04    76   0.507E-02    0.258E-03
RMM:   2    -0.124160272315E+02   -0.19325E-05   -0.18551E-05    56   0.246E-02
    982 T=   283. E= -.92665082E+01 F= -.12416027E+02 E0= -.12362327E+02  EK= 0.10959E+00 SP= 0.29E+01 SK= 0.18E+00
       N       E                     dE             d eps       ncg     rms          rms(c)
RMM:   1    -0.124101696434E+02    0.58557E-02   -0.25149E-04    76   0.521E-02    0.235E-03
RMM:   2    -0.124101722333E+02   -0.25899E-05   -0.25251E-05    54   0.263E-02
    983 T=   259. E= -.92664894E+01 F= -.12410172E+02 E0= -.12355900E+02  EK= 0.10034E+00 SP= 0.29E+01 SK= 0.17E+00
       N       E                     dE             d eps       ncg     rms          rms(c)
RMM:   1    -0.124045046550E+02    0.56650E-02   -0.21719E-04    69   0.510E-02    0.278E-03
RMM:   2    -0.124045070342E+02   -0.23792E-05   -0.23937E-05    56   0.257E-02
    984 T=   236. E= -.92664727E+01 F= -.12404507E+02 E0= -.12349807E+02  EK= 0.91641E-01 SP= 0.29E+01 SK= 0.16E+00
       N       E                     dE             d eps       ncg     rms          rms(c)
RMM:   1    -0.123992290732E+02    0.52756E-02   -0.14046E-04    67   0.393E-02    0.258E-03
RMM:   2    -0.123992303117E+02   -0.12384E-05   -0.12920E-05    45   0.185E-02
    985 T=   216. E= -.92664583E+01 F= -.12399230E+02 E0= -.12344228E+02  EK= 0.83668E-01 SP= 0.29E+01 SK= 0.15E+00
       N       E                     dE             d eps       ncg     rms          rms(c)
RMM:   1    -0.123945164097E+02    0.47127E-02   -0.11345E-04    65   0.422E-02    0.249E-03
RMM:   2    -0.123945177510E+02   -0.13413E-05   -0.12505E-05    54   0.199E-02
    986 T=   197. E= -.92664457E+01 F= -.12394518E+02 E0= -.12339340E+02  EK= 0.76557E-01 SP= 0.29E+01 SK= 0.14E+00
       N       E                     dE             d eps       ncg     rms          rms(c)
RMM:   1    -0.123905141307E+02    0.40023E-02   -0.75090E-05    65   0.339E-02    0.285E-03
RMM:   2    -0.123905148943E+02   -0.76360E-06   -0.75008E-06    40   0.154E-02
    987 T=   182. E= -.92664356E+01 F= -.12390515E+02 E0= -.12335280E+02  EK= 0.70416E-01 SP= 0.29E+01 SK= 0.13E+00
       N       E                     dE             d eps       ncg     rms          rms(c)
RMM:   1    -0.123873344664E+02    0.31797E-02   -0.42497E-05    60   0.337E-02    0.316E-03
RMM:   2    -0.123873350262E+02   -0.55981E-06   -0.54867E-06    42   0.157E-02
    988 T=   168. E= -.92664285E+01 F= -.12387335E+02 E0= -.12332156E+02  EK= 0.65318E-01 SP= 0.29E+01 SK= 0.13E+00
       N       E                     dE             d eps       ncg     rms          rms(c)
RMM:   1    -0.123850551675E+02    0.22793E-02   -0.27894E-05    60   0.283E-02    0.264E-03
RMM:   2    -0.123850553232E+02   -0.15570E-06   -0.12500E-06    35   0.121E-02
    989 T=   158. E= -.92664229E+01 F= -.12385055E+02 E0= -.12330039E+02  EK= 0.61305E-01 SP= 0.29E+01 SK= 0.12E+00
       N       E                     dE             d eps       ncg     rms          rms(c)
RMM:   1    -0.123837149343E+02    0.13402E-02   -0.52709E-05    62   0.323E-02    0.253E-03
RMM:   2    -0.123837153114E+02   -0.37709E-06   -0.50244E-06    41   0.142E-02
    990 T=   151. E= -.92664184E+01 F= -.12383715E+02 E0= -.12328959E+02  EK= 0.58379E-01 SP= 0.29E+01 SK= 0.11E+00
       N       E                     dE             d eps       ncg     rms          rms(c)
RMM:   1    -0.123833154721E+02    0.39946E-03   -0.98181E-05    65   0.361E-02    0.290E-03
RMM:   2    -0.123833162887E+02   -0.81652E-06   -0.80828E-06    45   0.175E-02
    991 T=   146. E= -.92664159E+01 F= -.12383316E+02 E0= -.12328906E+02  EK= 0.56509E-01 SP= 0.30E+01 SK= 0.10E+00
       N       E                     dE             d eps       ncg     rms          rms(c)
RMM:   1    -0.123838230911E+02   -0.50762E-03   -0.52260E-05    62   0.321E-02    0.343E-03
RMM:   2    -0.123838234514E+02   -0.36033E-06   -0.54415E-06    42   0.148E-02
    992 T=   143. E= -.92664165E+01 F= -.12383823E+02 E0= -.12329834E+02  EK= 0.55629E-01 SP= 0.30E+01 SK= 0.96E-01
       N       E                     dE             d eps       ncg     rms          rms(c)
RMM:   1    -0.123851701720E+02   -0.13471E-02   -0.74200E-05    64   0.329E-02    0.333E-03
RMM:   2    -0.123851707231E+02   -0.55109E-06   -0.65241E-06    43   0.149E-02
    993 T=   144. E= -.92664196E+01 F= -.12385171E+02 E0= -.12331669E+02  EK= 0.55649E-01 SP= 0.30E+01 SK= 0.89E-01
       N       E                     dE             d eps       ncg     rms          rms(c)
RMM:   1    -0.123872632113E+02   -0.20930E-02   -0.48715E-05    60   0.334E-02    0.555E-03
RMM:   2    -0.123872637139E+02   -0.50258E-06   -0.39536E-06    37   0.147E-02
    994 T=   146. E= -.92664227E+01 F= -.12387264E+02 E0= -.12334306E+02  EK= 0.56456E-01 SP= 0.30E+01 SK= 0.82E-01
       N       E                     dE             d eps       ncg     rms          rms(c)
RMM:   1    -0.123899841283E+02   -0.27209E-02   -0.11044E-04    66   0.382E-02    0.460E-03
RMM:   2    -0.123899846554E+02   -0.52713E-06   -0.95079E-06    46   0.176E-02
    995 T=   149. E= -.92664272E+01 F= -.12389985E+02 E0= -.12337617E+02  EK= 0.57917E-01 SP= 0.30E+01 SK= 0.75E-01
       N       E                     dE             d eps       ncg     rms          rms(c)
RMM:   1    -0.123931976376E+02   -0.32135E-02   -0.11951E-04    65   0.383E-02    0.289E-03
RMM:   2    -0.123931988368E+02   -0.11992E-05   -0.11277E-05    48   0.177E-02
    996 T=   154. E= -.92664346E+01 F= -.12393199E+02 E0= -.12341452E+02  EK= 0.59885E-01 SP= 0.30E+01 SK= 0.69E-01
       N       E                     dE             d eps       ncg     rms          rms(c)
RMM:   1    -0.123967612321E+02   -0.35636E-02   -0.81333E-05    65   0.320E-02    0.273E-03
RMM:   2    -0.123967618385E+02   -0.60642E-06   -0.65851E-06    38   0.143E-02
    997 T=   160. E= -.92664425E+01 F= -.12396762E+02 E0= -.12345660E+02  EK= 0.62211E-01 SP= 0.30E+01 SK= 0.63E-01
       N       E                     dE             d eps       ncg     rms          rms(c)
RMM:   1    -0.124005247117E+02   -0.37635E-02   -0.69372E-05    64   0.332E-02    0.232E-03
RMM:   2    -0.124005252470E+02   -0.53531E-06   -0.53678E-06    43   0.145E-02
    998 T=   167. E= -.92664503E+01 F= -.12400525E+02 E0= -.12350081E+02  EK= 0.64747E-01 SP= 0.30E+01 SK= 0.57E-01
       N       E                     dE             d eps       ncg     rms          rms(c)
RMM:   1    -0.124043412238E+02   -0.38165E-02   -0.13492E-04    66   0.381E-02    0.287E-03
RMM:   2    -0.124043425596E+02   -0.13358E-05   -0.13779E-05    47   0.181E-02
    999 T=   174. E= -.92664582E+01 F= -.12404343E+02 E0= -.12354558E+02  EK= 0.67347E-01 SP= 0.30E+01 SK= 0.52E-01
       N       E                     dE             d eps       ncg     rms          rms(c)
RMM:   1    -0.124080743564E+02   -0.37331E-02   -0.73041E-05    61   0.326E-02    0.157E-03
RMM:   2    -0.124080750674E+02   -0.71103E-06   -0.69542E-06    41   0.149E-02
   1000 T=   180. E= -.92664667E+01 F= -.12408075E+02 E0= -.12358944E+02  EK= 0.69875E-01 SP= 0.30E+01 SK= 0.47E-01
