    4    4    5    1
  0.2228503E+02  0.7091058E-09  0.3545529E-09  0.3545529E-09  0.2000000E-14
   920.00000000000000     
  CAR 
 Al, 4 atoms                             
     12      4     12

  0.2500000E+00  0.2500000E+00  0.2500000E+00  0.2500000E+00
      1         -3.360038   1.000000
      2         -0.764330   1.000000
      3          1.646731   1.000000
      4          2.448946   1.000000
      5          2.706692   1.000000
      6          4.853152   0.851690
      7          5.138720   0.135369
      8          6.228312   0.000000
      9          7.188321   0.000000
     10          7.929822   0.000000
     11          8.540856   0.000000
     12         10.491469   0.000000

  0.2500000E+00 -0.2500000E+00  0.2500000E+00  0.2500000E+00
      1         -3.356478   1.000000
      2         -0.795006   1.000000
      3          1.836437   1.000000
      4          2.366345   1.000000
      5          2.633143   1.000000
      6          4.704454   0.974008
      7          5.343124   0.011743
      8          5.899419   0.000011
      9          7.590939   0.000000
     10          8.076277   0.000000
     11          8.330068   0.000000
     12         10.527485   0.000000

  0.2500000E+00 -0.2500000E+00 -0.2500000E+00  0.2500000E+00
      1         -3.358469   1.000000
      2         -0.780020   1.000000
      3          1.742988   1.000000
      4          2.378504   1.000000
      5          2.701699   1.000000
      6          4.778716   0.936247
      7          5.140677   0.132507
      8          6.210393   0.000000
      9          7.438959   0.000000
     10          7.956099   0.000000
     11          8.334439   0.000000
     12         10.410535   0.000000

  0.2500000E+00  0.2500000E+00 -0.2500000E+00  0.2500000E+00
      1         -3.360383   1.000000
      2         -0.750939   1.000000
      3          1.573346   1.000000
      4          2.462026   1.000000
      5          2.756015   1.000000
      6          4.766299   0.944981
      7          5.332265   0.013444
      8          6.222929   0.000000
      9          7.128602   0.000000
     10          7.880376   0.000000
     11          8.345440   0.000000
     12         11.215498   0.000000
