       N       E                     dE             d eps       ncg     rms          rms(c)
RMM:   1     0.223204499575E+02    0.22320E+02   -0.15127E+03    48   0.317E+02
RMM:   2    -0.635272505027E+01   -0.28673E+02   -0.26766E+02    48   0.700E+01
RMM:   3    -0.118866876645E+02   -0.55340E+01   -0.46362E+01    48   0.259E+01
RMM:   4    -0.129164875858E+02   -0.10298E+01   -0.72842E+00    48   0.139E+01
RMM:   5    -0.131226293136E+02   -0.20614E+00   -0.14510E+00    48   0.617E+00
RMM:   6    -0.131726070852E+02   -0.49978E-01   -0.36726E-01    48   0.330E+00
RMM:   7    -0.131842562360E+02   -0.11649E-01   -0.97139E-02    48   0.168E+00
RMM:   8    -0.131872194714E+02   -0.29632E-02   -0.26190E-02    48   0.903E-01
RMM:   9    -0.131879138341E+02   -0.69436E-03   -0.65483E-03    98   0.454E-01
RMM:  10    -0.131881486682E+02   -0.23483E-03   -0.22954E-03    95   0.253E-01
RMM:  11    -0.131881832634E+02   -0.34595E-04   -0.32381E-04    78   0.990E-02
RMM:  12    -0.131881948255E+02   -0.11562E-04   -0.11382E-04    74   0.558E-02    0.396E+00
RMM:  13    -0.121256384629E+02    0.10626E+01   -0.14923E+00   149   0.308E+00    0.188E+00
RMM:  14    -0.120443574260E+02    0.81281E-01   -0.18051E-01   135   0.122E+00    0.734E-01
RMM:  15    -0.120392654112E+02    0.50920E-02   -0.93193E-03    96   0.407E-01    0.185E-01
RMM:  16    -0.120387768000E+02    0.48861E-03   -0.15200E-03    96   0.197E-01    0.704E-02
RMM:  17    -0.120387379298E+02    0.38870E-04   -0.19551E-04    71   0.914E-02
      1 T=   918. E= -.11701365E+02 F= -.12038738E+02 E0= -.11984181E+02  EK= 0.35594E+00 SP= -.20E-01 SK= 0.19E-02
       N       E                     dE             d eps       ncg     rms          rms(c)
RMM:   1    -0.120259732764E+02    0.12804E-01   -0.11160E-01    96   0.195E+00    0.128E-01
RMM:   2    -0.120254132350E+02    0.56004E-03   -0.52626E-03    96   0.526E-01    0.746E-02
RMM:   3    -0.120254048539E+02    0.83811E-05   -0.10735E-03    96   0.235E-01    0.315E-02
RMM:   4    -0.120254015175E+02    0.33364E-05   -0.18351E-04    72   0.988E-02
      2 T=   880. E= -.11701394E+02 F= -.12025402E+02 E0= -.11971011E+02  EK= 0.34137E+00 SP= -.19E-01 SK= 0.19E-02
       N       E                     dE             d eps       ncg     rms          rms(c)
RMM:   1    -0.120176758202E+02    0.77290E-02   -0.24334E-03    96   0.302E-01    0.417E-02
RMM:   2    -0.120176558330E+02    0.19987E-04   -0.16345E-04    70   0.869E-02
      3 T=   857. E= -.11701469E+02 F= -.12017656E+02 E0= -.11963317E+02  EK= 0.33241E+00 SP= -.18E-01 SK= 0.18E-02
       N       E                     dE             d eps       ncg     rms          rms(c)
RMM:   1    -0.120158076945E+02    0.18681E-02   -0.46581E-04    96   0.149E-01    0.168E-02
RMM:   2    -0.120158056497E+02    0.20449E-05   -0.99739E-05    65   0.727E-02
      4 T=   850. E= -.11701471E+02 F= -.12015806E+02 E0= -.11961552E+02  EK= 0.32946E+00 SP= -.17E-01 SK= 0.17E-02
       N       E                     dE             d eps       ncg     rms          rms(c)
RMM:   1    -0.120198709284E+02   -0.40632E-02   -0.30277E-04    86   0.111E-01    0.445E-02
RMM:   2    -0.120198710721E+02   -0.14378E-06   -0.43610E-05    65   0.487E-02
      5 T=   857. E= -.11701443E+02 F= -.12019871E+02 E0= -.11965721E+02  EK= 0.33248E+00 SP= -.16E-01 SK= 0.17E-02
       N       E                     dE             d eps       ncg     rms          rms(c)
RMM:   1    -0.120296047041E+02   -0.97338E-02   -0.45227E-04    78   0.993E-02    0.653E-02
RMM:   2    -0.120296062760E+02   -0.15720E-05   -0.51956E-05    67   0.452E-02
      6 T=   880. E= -.11701435E+02 F= -.12029606E+02 E0= -.11975617E+02  EK= 0.34116E+00 SP= -.15E-01 SK= 0.16E-02
       N       E                     dE             d eps       ncg     rms          rms(c)
RMM:   1    -0.120445693143E+02   -0.14965E-01   -0.34766E-04    84   0.967E-02    0.313E-02
RMM:   2    -0.120445597295E+02    0.95848E-05   -0.58322E-05    64   0.456E-02
      7 T=   915. E= -.11701453E+02 F= -.12044560E+02 E0= -.11990938E+02  EK= 0.35501E+00 SP= -.13E-01 SK= 0.16E-02
       N       E                     dE             d eps       ncg     rms          rms(c)
RMM:   1    -0.120641505689E+02   -0.19581E-01   -0.53871E-04    86   0.974E-02    0.624E-02
RMM:   2    -0.120641546483E+02   -0.40793E-05   -0.51282E-05    67   0.385E-02
      8 T=   963. E= -.11701501E+02 F= -.12064155E+02 E0= -.12010870E+02  EK= 0.37343E+00 SP= -.12E-01 SK= 0.16E-02
       N       E                     dE             d eps       ncg     rms          rms(c)
RMM:   1    -0.120876312090E+02   -0.23481E-01   -0.33024E-04    81   0.858E-02    0.601E-02
RMM:   2    -0.120876313571E+02   -0.14812E-06   -0.42652E-05    64   0.367E-02
      9 T=  1020. E= -.11701550E+02 F= -.12087631E+02 E0= -.12034838E+02  EK= 0.39564E+00 SP= -.11E-01 SK= 0.17E-02
       N       E                     dE             d eps       ncg     rms          rms(c)
RMM:   1    -0.121139466535E+02   -0.26315E-01   -0.50150E-04    85   0.928E-02    0.588E-02
RMM:   2    -0.121139415977E+02    0.50558E-05   -0.63678E-05    65   0.445E-02
     10 T=  1085. E= -.11701609E+02 F= -.12113942E+02 E0= -.12061655E+02  EK= 0.42055E+00 SP= -.10E-01 SK= 0.19E-02
       N       E                     dE             d eps       ncg     rms          rms(c)
RMM:   1    -0.121417092730E+02   -0.27763E-01   -0.28294E-04    83   0.827E-02    0.845E-02
RMM:   2    -0.121417083613E+02    0.91170E-06   -0.29788E-05    64   0.338E-02
     11 T=  1152. E= -.11701717E+02 F= -.12141708E+02 E0= -.12089994E+02  EK= 0.44670E+00 SP= -.88E-02 SK= 0.21E-02
       N       E                     dE             d eps       ncg     rms          rms(c)
RMM:   1    -0.121691273048E+02   -0.27418E-01   -0.34415E-04    78   0.756E-02    0.348E-02
RMM:   2    -0.121691284404E+02   -0.11356E-05   -0.33956E-05    64   0.307E-02
     12 T=  1218. E= -.11701851E+02 F= -.12169128E+02 E0= -.12117979E+02  EK= 0.47226E+00 SP= -.75E-02 SK= 0.25E-02
       N       E                     dE             d eps       ncg     rms          rms(c)
RMM:   1    -0.121940892241E+02   -0.24962E-01   -0.62359E-04    81   0.855E-02    0.672E-02
RMM:   2    -0.121940955017E+02   -0.62776E-05   -0.66272E-05    65   0.394E-02
     13 T=  1277. E= -.11701994E+02 F= -.12194096E+02 E0= -.12143465E+02  EK= 0.49510E+00 SP= -.60E-02 SK= 0.30E-02
       N       E                     dE             d eps       ncg     rms          rms(c)
RMM:   1    -0.122144203305E+02   -0.20331E-01   -0.91297E-04    83   0.947E-02    0.168E-02
RMM:   2    -0.122144292653E+02   -0.89348E-05   -0.95882E-05    70   0.461E-02
     14 T=  1323. E= -.11702123E+02 F= -.12214429E+02 E0= -.12164225E+02  EK= 0.51302E+00 SP= -.44E-02 SK= 0.37E-02
       N       E                     dE             d eps       ncg     rms          rms(c)
RMM:   1    -0.122282059864E+02   -0.13786E-01   -0.75648E-04    84   0.939E-02    0.846E-03
RMM:   2    -0.122282147177E+02   -0.87313E-05   -0.83720E-05    69   0.455E-02
     15 T=  1352. E= -.11702215E+02 F= -.12228215E+02 E0= -.12178319E+02  EK= 0.52411E+00 SP= -.26E-02 SK= 0.45E-02
       N       E                     dE             d eps       ncg     rms          rms(c)
RMM:   1    -0.122341223275E+02   -0.59163E-02   -0.53803E-04    86   0.850E-02    0.420E-02
RMM:   2    -0.122341279206E+02   -0.55931E-05   -0.61759E-05    70   0.401E-02
     16 T=  1359. E= -.11702238E+02 F= -.12234128E+02 E0= -.12184387E+02  EK= 0.52710E+00 SP= -.66E-03 SK= 0.55E-02
       N       E                     dE             d eps       ncg     rms          rms(c)
RMM:   1    -0.122317278804E+02    0.23944E-02   -0.80943E-04    89   0.952E-02    0.951E-03
RMM:   2    -0.122317368219E+02   -0.89414E-05   -0.88619E-05    70   0.472E-02
     17 T=  1345. E= -.11702170E+02 F= -.12231737E+02 E0= -.12182004E+02  EK= 0.52161E+00 SP= 0.15E-02 SK= 0.65E-02
       N       E                     dE             d eps       ncg     rms          rms(c)
RMM:   1    -0.122217477034E+02    0.99802E-02   -0.10743E-03    88   0.107E-01    0.242E-02
RMM:   2    -0.122217585834E+02   -0.10880E-04   -0.11626E-04    71   0.539E-02
     18 T=  1311. E= -.11702023E+02 F= -.12221759E+02 E0= -.12171895E+02  EK= 0.50840E+00 SP= 0.38E-02 SK= 0.75E-02
       N       E                     dE             d eps       ncg     rms          rms(c)
RMM:   1    -0.122060842699E+02    0.15663E-01   -0.10758E-03    89   0.108E-01    0.177E-02
RMM:   2    -0.122060947763E+02   -0.10506E-04   -0.10907E-04    73   0.528E-02
     19 T=  1262. E= -.11701817E+02 F= -.12206095E+02 E0= -.12155967E+02  EK= 0.48945E+00 SP= 0.63E-02 SK= 0.85E-02
       N       E                     dE             d eps       ncg     rms          rms(c)
RMM:   1    -0.121875636831E+02    0.18521E-01   -0.12676E-03    89   0.115E-01    0.259E-02
RMM:   2    -0.121875760207E+02   -0.12338E-04   -0.12411E-04    73   0.553E-02
     20 T=  1206. E= -.11701575E+02 F= -.12187576E+02 E0= -.12137077E+02  EK= 0.46762E+00 SP= 0.90E-02 SK= 0.94E-02
       N       E                     dE             d eps       ncg     rms          rms(c)
RMM:   1    -0.121694909470E+02    0.18073E-01   -0.78375E-04    89   0.104E-01    0.174E-02
RMM:   2    -0.121694991588E+02   -0.82118E-05   -0.83236E-05    69   0.483E-02
     21 T=  1151. E= -.11701334E+02 F= -.12169499E+02 E0= -.12118542E+02  EK= 0.44624E+00 SP= 0.12E-01 SK= 0.10E-01
       N       E                     dE             d eps       ncg     rms          rms(c)
RMM:   1    -0.121550343569E+02    0.14457E-01   -0.12532E-03    88   0.112E-01    0.564E-03
RMM:   2    -0.121550459535E+02   -0.11597E-04   -0.11857E-04    72   0.543E-02
     22 T=  1105. E= -.11701128E+02 F= -.12155046E+02 E0= -.12103554E+02  EK= 0.42847E+00 SP= 0.15E-01 SK= 0.11E-01
       N       E                     dE             d eps       ncg     rms          rms(c)
RMM:   1    -0.121467657088E+02    0.82686E-02   -0.87977E-04    83   0.101E-01    0.707E-03
RMM:   2    -0.121467741066E+02   -0.83979E-05   -0.87620E-05    66   0.469E-02
     23 T=  1075. E= -.11701000E+02 F= -.12146774E+02 E0= -.12094697E+02  EK= 0.41684E+00 SP= 0.18E-01 SK= 0.11E-01
       N       E                     dE             d eps       ncg     rms          rms(c)
RMM:   1    -0.121461924324E+02    0.57328E-03   -0.55611E-04    84   0.849E-02    0.127E-02
RMM:   2    -0.121461980700E+02   -0.56376E-05   -0.54797E-05    65   0.382E-02
     24 T=  1065. E= -.11700947E+02 F= -.12146198E+02 E0= -.12093500E+02  EK= 0.41281E+00 SP= 0.21E-01 SK= 0.12E-01
       N       E                     dE             d eps       ncg     rms          rms(c)
RMM:   1    -0.121535992361E+02   -0.74068E-02   -0.55621E-04    79   0.801E-02    0.436E-03
RMM:   2    -0.121536040655E+02   -0.48294E-05   -0.51285E-05    65   0.363E-02
     25 T=  1074. E= -.11700970E+02 F= -.12153604E+02 E0= -.12100265E+02  EK= 0.41662E+00 SP= 0.24E-01 SK= 0.12E-01
       N       E                     dE             d eps       ncg     rms          rms(c)
RMM:   1    -0.121681115735E+02   -0.14512E-01   -0.40631E-04    83   0.743E-02    0.900E-03
RMM:   2    -0.121681159169E+02   -0.43434E-05   -0.42767E-05    63   0.340E-02
     26 T=  1102. E= -.11701066E+02 F= -.12168116E+02 E0= -.12114117E+02  EK= 0.42733E+00 SP= 0.27E-01 SK= 0.13E-01
       N       E                     dE             d eps       ncg     rms          rms(c)
RMM:   1    -0.121879659295E+02   -0.19854E-01   -0.44065E-04    81   0.735E-02    0.840E-03
RMM:   2    -0.121879703995E+02   -0.44700E-05   -0.41771E-05    63   0.336E-02
     27 T=  1143. E= -.11701199E+02 F= -.12187970E+02 E0= -.12133301E+02  EK= 0.44312E+00 SP= 0.30E-01 SK= 0.14E-01
       N       E                     dE             d eps       ncg     rms          rms(c)
RMM:   1    -0.122109168639E+02   -0.22951E-01   -0.72040E-04    82   0.797E-02    0.104E-02
RMM:   2    -0.122109228533E+02   -0.59894E-05   -0.60338E-05    66   0.372E-02
     28 T=  1191. E= -.11701329E+02 F= -.12210923E+02 E0= -.12155586E+02  EK= 0.46174E+00 SP= 0.33E-01 SK= 0.15E-01
       N       E                     dE             d eps       ncg     rms          rms(c)
RMM:   1    -0.122346480054E+02   -0.23731E-01   -0.10860E-03    78   0.865E-02    0.540E-03
RMM:   2    -0.122346569420E+02   -0.89367E-05   -0.89091E-05    69   0.406E-02
     29 T=  1240. E= -.11701432E+02 F= -.12234657E+02 E0= -.12178664E+02  EK= 0.48084E+00 SP= 0.37E-01 SK= 0.16E-01
       N       E                     dE             d eps       ncg     rms          rms(c)
RMM:   1    -0.122571081999E+02   -0.22460E-01   -0.11124E-03    83   0.902E-02    0.819E-03
RMM:   2    -0.122571175754E+02   -0.93754E-05   -0.94595E-05    69   0.422E-02
     30 T=  1285. E= -.11701513E+02 F= -.12257118E+02 E0= -.12200486E+02  EK= 0.49833E+00 SP= 0.40E-01 SK= 0.17E-01
       N       E                     dE             d eps       ncg     rms          rms(c)
RMM:   1    -0.122767242682E+02   -0.19616E-01   -0.91416E-04    84   0.861E-02    0.123E-02
RMM:   2    -0.122767322420E+02   -0.79738E-05   -0.78108E-05    68   0.397E-02
     31 T=  1322. E= -.11701566E+02 F= -.12276732E+02 E0= -.12219481E+02  EK= 0.51262E+00 SP= 0.44E-01 SK= 0.19E-01
       N       E                     dE             d eps       ncg     rms          rms(c)
RMM:   1    -0.122925054820E+02   -0.15781E-01   -0.96888E-04    87   0.900E-02    0.979E-03
RMM:   2    -0.122925132555E+02   -0.77735E-05   -0.76098E-05    70   0.408E-02
     32 T=  1348. E= -.11701577E+02 F= -.12292513E+02 E0= -.12234665E+02  EK= 0.52275E+00 SP= 0.48E-01 SK= 0.20E-01
       N       E                     dE             d eps       ncg     rms          rms(c)
RMM:   1    -0.123039936176E+02   -0.11488E-01   -0.12438E-03    89   0.973E-02    0.114E-02
RMM:   2    -0.123040036885E+02   -0.10071E-04   -0.10142E-04    72   0.475E-02
     33 T=  1362. E= -.11701560E+02 F= -.12304004E+02 E0= -.12245585E+02  EK= 0.52826E+00 SP= 0.52E-01 SK= 0.22E-01
       N       E                     dE             d eps       ncg     rms          rms(c)
RMM:   1    -0.123111417396E+02   -0.71481E-02   -0.14425E-03    92   0.105E-01    0.486E-03
RMM:   2    -0.123111537537E+02   -0.12014E-04   -0.11812E-04    70   0.511E-02
     34 T=  1365. E= -.11701526E+02 F= -.12311154E+02 E0= -.12252196E+02  EK= 0.52913E+00 SP= 0.56E-01 SK= 0.24E-01
       N       E                     dE             d eps       ncg     rms          rms(c)
RMM:   1    -0.123141845001E+02   -0.30428E-02   -0.14742E-03    89   0.103E-01    0.929E-03
RMM:   2    -0.123141960817E+02   -0.11582E-04   -0.11425E-04    70   0.498E-02
     35 T=  1356. E= -.11701475E+02 F= -.12314196E+02 E0= -.12254743E+02  EK= 0.52566E+00 SP= 0.61E-01 SK= 0.26E-01
       N       E                     dE             d eps       ncg     rms          rms(c)
RMM:   1    -0.123135200333E+02    0.66447E-03   -0.87452E-04    87   0.881E-02    0.928E-03
RMM:   2    -0.123135271883E+02   -0.71550E-05   -0.72425E-05    68   0.403E-02
     36 T=  1336. E= -.11701415E+02 F= -.12313527E+02 E0= -.12253634E+02  EK= 0.51827E+00 SP= 0.65E-01 SK= 0.29E-01
       N       E                     dE             d eps       ncg     rms          rms(c)
RMM:   1    -0.123096110036E+02    0.39090E-02   -0.11049E-03    84   0.927E-02    0.614E-03
RMM:   2    -0.123096205063E+02   -0.95026E-05   -0.93547E-05    67   0.440E-02
     37 T=  1309. E= -.11701356E+02 F= -.12309621E+02 E0= -.12249345E+02  EK= 0.50751E+00 SP= 0.70E-01 SK= 0.31E-01
       N       E                     dE             d eps       ncg     rms          rms(c)
RMM:   1    -0.123029637916E+02    0.66472E-02   -0.28597E-04    78   0.662E-02    0.424E-03
RMM:   2    -0.123029668660E+02   -0.30744E-05   -0.30326E-05    59   0.274E-02
     38 T=  1274. E= -.11701308E+02 F= -.12302967E+02 E0= -.12242368E+02  EK= 0.49393E+00 SP= 0.75E-01 SK= 0.33E-01
       N       E                     dE             d eps       ncg     rms          rms(c)
RMM:   1    -0.122939996073E+02    0.89642E-02   -0.50539E-04    79   0.687E-02    0.103E-02
RMM:   2    -0.122940038499E+02   -0.42426E-05   -0.42302E-05    59   0.306E-02
     39 T=  1233. E= -.11701270E+02 F= -.12294004E+02 E0= -.12233136E+02  EK= 0.47802E+00 SP= 0.80E-01 SK= 0.34E-01
       N       E                     dE             d eps       ncg     rms          rms(c)
RMM:   1    -0.122830667450E+02    0.10933E-01   -0.44363E-04    74   0.657E-02    0.109E-02
RMM:   2    -0.122830703779E+02   -0.36329E-05   -0.37127E-05    60   0.286E-02
     40 T=  1187. E= -.11701247E+02 F= -.12283070E+02 E0= -.12221972E+02  EK= 0.46020E+00 SP= 0.85E-01 SK= 0.36E-01
       N       E                     dE             d eps       ncg     rms          rms(c)
RMM:   1    -0.122704022983E+02    0.12664E-01   -0.20614E-04    74   0.502E-02    0.437E-03
RMM:   2    -0.122704040222E+02   -0.17238E-05   -0.17107E-05    54   0.208E-02
     41 T=  1137. E= -.11701229E+02 F= -.12270404E+02 E0= -.12209107E+02  EK= 0.44078E+00 SP= 0.91E-01 SK= 0.38E-01
       N       E                     dE             d eps       ncg     rms          rms(c)
RMM:   1    -0.122561814454E+02    0.14221E-01   -0.25919E-04    76   0.564E-02    0.871E-03
RMM:   2    -0.122561834665E+02   -0.20211E-05   -0.23545E-05    60   0.248E-02
     42 T=  1083. E= -.11701205E+02 F= -.12256183E+02 E0= -.12194708E+02  EK= 0.41999E+00 SP= 0.96E-01 SK= 0.39E-01
       N       E                     dE             d eps       ncg     rms          rms(c)
RMM:   1    -0.122405802259E+02    0.15601E-01   -0.19728E-04    72   0.461E-02    0.419E-03
RMM:   2    -0.122405818273E+02   -0.16014E-05   -0.16578E-05    53   0.194E-02
     43 T=  1027. E= -.11701181E+02 F= -.12240582E+02 E0= -.12178941E+02  EK= 0.39808E+00 SP= 0.10E+00 SK= 0.39E-01
       N       E                     dE             d eps       ncg     rms          rms(c)
RMM:   1    -0.122237941541E+02    0.16786E-01   -0.27428E-04    74   0.526E-02    0.994E-03
RMM:   2    -0.122237964391E+02   -0.22851E-05   -0.22356E-05    60   0.231E-02
     44 T=   968. E= -.11701158E+02 F= -.12223796E+02 E0= -.12161996E+02  EK= 0.37527E+00 SP= 0.11E+00 SK= 0.40E-01
       N       E                     dE             d eps       ncg     rms          rms(c)
RMM:   1    -0.122060691589E+02    0.17725E-01   -0.53497E-04    81   0.597E-02    0.376E-03
RMM:   2    -0.122060734974E+02   -0.43385E-05   -0.43046E-05    65   0.279E-02
     45 T=   907. E= -.11701136E+02 F= -.12206073E+02 E0= -.12144121E+02  EK= 0.35187E+00 SP= 0.11E+00 SK= 0.40E-01
       N       E                     dE             d eps       ncg     rms          rms(c)
RMM:   1    -0.121877247517E+02    0.18344E-01   -0.48941E-04    78   0.596E-02    0.188E-02
RMM:   2    -0.121877284046E+02   -0.36529E-05   -0.42452E-05    58   0.279E-02
     46 T=   846. E= -.11701110E+02 F= -.12187728E+02 E0= -.12125637E+02  EK= 0.32822E+00 SP= 0.12E+00 SK= 0.40E-01
       N       E                     dE             d eps       ncg     rms          rms(c)
RMM:   1    -0.121691600843E+02    0.18565E-01   -0.48904E-04    78   0.636E-02    0.142E-02
RMM:   2    -0.121691639970E+02   -0.39127E-05   -0.40243E-05    64   0.298E-02
     47 T=   786. E= -.11701079E+02 F= -.12169164E+02 E0= -.12106961E+02  EK= 0.30476E+00 SP= 0.12E+00 SK= 0.39E-01
       N       E                     dE             d eps       ncg     rms          rms(c)
RMM:   1    -0.121508859398E+02    0.18274E-01   -0.83639E-04    77   0.742E-02    0.479E-03
RMM:   2    -0.121508920443E+02   -0.61046E-05   -0.63690E-05    60   0.339E-02
     48 T=   727. E= -.11701042E+02 F= -.12150892E+02 E0= -.12088611E+02  EK= 0.28200E+00 SP= 0.13E+00 SK= 0.38E-01
       N       E                     dE             d eps       ncg     rms          rms(c)
RMM:   1    -0.121335359966E+02    0.17350E-01   -0.69280E-04    77   0.706E-02    0.558E-03
RMM:   2    -0.121335417445E+02   -0.57479E-05   -0.57489E-05    63   0.324E-02
     49 T=   672. E= -.11700995E+02 F= -.12133542E+02 E0= -.12071227E+02  EK= 0.26057E+00 SP= 0.14E+00 SK= 0.37E-01
       N       E                     dE             d eps       ncg     rms          rms(c)
RMM:   1    -0.121178361173E+02    0.15700E-01   -0.44055E-04    75   0.629E-02    0.582E-03
RMM:   2    -0.121178391239E+02   -0.30066E-05   -0.36218E-05    59   0.279E-02
     50 T=   622. E= -.11700943E+02 F= -.12117839E+02 E0= -.12055544E+02  EK= 0.24118E+00 SP= 0.14E+00 SK= 0.35E-01
       N       E                     dE             d eps       ncg     rms          rms(c)
RMM:   1    -0.121045512191E+02    0.13285E-01   -0.62793E-04    75   0.682E-02    0.460E-03
RMM:   2    -0.121045554754E+02   -0.42562E-05   -0.45954E-05    57   0.304E-02
     51 T=   579. E= -.11700892E+02 F= -.12104555E+02 E0= -.12042343E+02  EK= 0.22456E+00 SP= 0.15E+00 SK= 0.33E-01
       N       E                     dE             d eps       ncg     rms          rms(c)
RMM:   1    -0.120944288738E+02    0.10122E-01   -0.36544E-04    76   0.561E-02    0.747E-03
RMM:   2    -0.120944319086E+02   -0.30348E-05   -0.33383E-05    53   0.247E-02
     52 T=   545. E= -.11700850E+02 F= -.12094432E+02 E0= -.12032364E+02  EK= 0.21139E+00 SP= 0.15E+00 SK= 0.32E-01
       N       E                     dE             d eps       ncg     rms          rms(c)
RMM:   1    -0.120880926073E+02    0.63363E-02   -0.15237E-04    70   0.471E-02    0.384E-03
RMM:   2    -0.120880940110E+02   -0.14037E-05   -0.13339E-05    47   0.201E-02
     53 T=   522. E= -.11700822E+02 F= -.12088094E+02 E0= -.12026240E+02  EK= 0.20225E+00 SP= 0.16E+00 SK= 0.29E-01
       N       E                     dE             d eps       ncg     rms          rms(c)
RMM:   1    -0.120859782382E+02    0.21144E-02   -0.13701E-04    69   0.445E-02    0.623E-03
RMM:   2    -0.120859793517E+02   -0.11136E-05   -0.12693E-05    52   0.194E-02
     54 T=   509. E= -.11700806E+02 F= -.12085979E+02 E0= -.12024405E+02  EK= 0.19751E+00 SP= 0.16E+00 SK= 0.27E-01
       N       E                     dE             d eps       ncg     rms          rms(c)
RMM:   1    -0.120882899118E+02   -0.23117E-02   -0.30067E-04    70   0.485E-02    0.717E-03
RMM:   2    -0.120882921435E+02   -0.22317E-05   -0.22992E-05    54   0.224E-02
     55 T=   509. E= -.11700806E+02 F= -.12088292E+02 E0= -.12027057E+02  EK= 0.19731E+00 SP= 0.16E+00 SK= 0.25E-01
       N       E                     dE             d eps       ncg     rms          rms(c)
RMM:   1    -0.120949835949E+02   -0.66937E-02   -0.32407E-04    73   0.500E-02    0.666E-03
RMM:   2    -0.120949860952E+02   -0.25004E-05   -0.25514E-05    54   0.240E-02
     56 T=   520. E= -.11700824E+02 F= -.12094986E+02 E0= -.12034145E+02  EK= 0.20154E+00 SP= 0.17E+00 SK= 0.23E-01
       N       E                     dE             d eps       ncg     rms          rms(c)
RMM:   1    -0.121057693041E+02   -0.10786E-01   -0.29811E-04    70   0.481E-02    0.987E-03
RMM:   2    -0.121057713247E+02   -0.20206E-05   -0.21664E-05    49   0.226E-02
     57 T=   541. E= -.11700856E+02 F= -.12105771E+02 E0= -.12045371E+02  EK= 0.20988E+00 SP= 0.17E+00 SK= 0.22E-01
       N       E                     dE             d eps       ncg     rms          rms(c)
RMM:   1    -0.121201488675E+02   -0.14380E-01   -0.17568E-04    73   0.460E-02    0.433E-03
RMM:   2    -0.121201504489E+02   -0.15814E-05   -0.15078E-05    50   0.210E-02
     58 T=   572. E= -.11700898E+02 F= -.12120150E+02 E0= -.12060231E+02  EK= 0.22177E+00 SP= 0.18E+00 SK= 0.20E-01
       N       E                     dE             d eps       ncg     rms          rms(c)
RMM:   1    -0.121374673059E+02   -0.17318E-01   -0.21742E-04    68   0.486E-02    0.788E-03
RMM:   2    -0.121374691632E+02   -0.18572E-05   -0.19518E-05    57   0.221E-02
     59 T=   610. E= -.11700947E+02 F= -.12137469E+02 E0= -.12078060E+02  EK= 0.23655E+00 SP= 0.18E+00 SK= 0.19E-01
       N       E                     dE             d eps       ncg     rms          rms(c)
RMM:   1    -0.121569794301E+02   -0.19512E-01   -0.18544E-04    69   0.435E-02    0.288E-03
RMM:   2    -0.121569810653E+02   -0.16352E-05   -0.16238E-05    48   0.205E-02
     60 T=   654. E= -.11700998E+02 F= -.12156981E+02 E0= -.12098113E+02  EK= 0.25343E+00 SP= 0.19E+00 SK= 0.18E-01
       N       E                     dE             d eps       ncg     rms          rms(c)
RMM:   1    -0.121779154312E+02   -0.20936E-01   -0.17530E-04    71   0.450E-02    0.170E-03
RMM:   2    -0.121779169193E+02   -0.14881E-05   -0.13961E-05    49   0.203E-02
     61 T=   700. E= -.11701046E+02 F= -.12177917E+02 E0= -.12119613E+02  EK= 0.27164E+00 SP= 0.19E+00 SK= 0.17E-01
       N       E                     dE             d eps       ncg     rms          rms(c)
RMM:   1    -0.121995386775E+02   -0.21623E-01   -0.18434E-04    69   0.461E-02    0.564E-03
RMM:   2    -0.121995402155E+02   -0.15380E-05   -0.15141E-05    50   0.201E-02
     62 T=   749. E= -.11701090E+02 F= -.12199540E+02 E0= -.12141824E+02  EK= 0.29042E+00 SP= 0.19E+00 SK= 0.16E-01
       N       E                     dE             d eps       ncg     rms          rms(c)
RMM:   1    -0.122211864586E+02   -0.21648E-01   -0.29415E-04    72   0.530E-02    0.360E-03
RMM:   2    -0.122211889333E+02   -0.24748E-05   -0.24475E-05    54   0.246E-02
     63 T=   797. E= -.11701129E+02 F= -.12221189E+02 E0= -.12164084E+02  EK= 0.30911E+00 SP= 0.20E+00 SK= 0.15E-01
       N       E                     dE             d eps       ncg     rms          rms(c)
RMM:   1    -0.122422890477E+02   -0.21103E-01   -0.32440E-04    72   0.506E-02    0.282E-03
RMM:   2    -0.122422915856E+02   -0.25378E-05   -0.24660E-05    52   0.231E-02
     64 T=   844. E= -.11701166E+02 F= -.12242292E+02 E0= -.12185821E+02  EK= 0.32712E+00 SP= 0.20E+00 SK= 0.15E-01
       N       E                     dE             d eps       ncg     rms          rms(c)
RMM:   1    -0.122623655039E+02   -0.20076E-01   -0.29168E-04    72   0.502E-02    0.343E-03
RMM:   2    -0.122623680375E+02   -0.25335E-05   -0.25185E-05    53   0.227E-02
     65 T=   887. E= -.11701197E+02 F= -.12262368E+02 E0= -.12206550E+02  EK= 0.34397E+00 SP= 0.20E+00 SK= 0.15E-01
       N       E                     dE             d eps       ncg     rms          rms(c)
RMM:   1    -0.122810146915E+02   -0.18649E-01   -0.38245E-04    73   0.567E-02    0.230E-03
RMM:   2    -0.122810179423E+02   -0.32508E-05   -0.30713E-05    52   0.266E-02
     66 T=   926. E= -.11701221E+02 F= -.12281018E+02 E0= -.12225863E+02  EK= 0.35927E+00 SP= 0.21E+00 SK= 0.15E-01
       N       E                     dE             d eps       ncg     rms          rms(c)
RMM:   1    -0.122979052659E+02   -0.16891E-01   -0.43012E-04    78   0.613E-02    0.345E-03
RMM:   2    -0.122979089848E+02   -0.37189E-05   -0.35568E-05    59   0.290E-02
     67 T=   961. E= -.11701245E+02 F= -.12297909E+02 E0= -.12243418E+02  EK= 0.37267E+00 SP= 0.21E+00 SK= 0.15E-01
       N       E                     dE             d eps       ncg     rms          rms(c)
RMM:   1    -0.123127503816E+02   -0.14845E-01   -0.38846E-04    74   0.579E-02    0.255E-03
RMM:   2    -0.123127535015E+02   -0.31199E-05   -0.31312E-05    53   0.265E-02
     68 T=   990. E= -.11701269E+02 F= -.12312754E+02 E0= -.12258909E+02  EK= 0.38388E+00 SP= 0.21E+00 SK= 0.15E-01
       N       E                     dE             d eps       ncg     rms          rms(c)
RMM:   1    -0.123252868612E+02   -0.12536E-01   -0.53937E-04    76   0.665E-02    0.413E-03
RMM:   2    -0.123252917103E+02   -0.48491E-05   -0.46849E-05    60   0.316E-02
     69 T=  1013. E= -.11701290E+02 F= -.12325292E+02 E0= -.12272051E+02  EK= 0.39267E+00 SP= 0.22E+00 SK= 0.15E-01
       N       E                     dE             d eps       ncg     rms          rms(c)
RMM:   1    -0.123352699205E+02   -0.99831E-02   -0.87846E-04    85   0.826E-02    0.669E-03
RMM:   2    -0.123352774085E+02   -0.74880E-05   -0.73995E-05    65   0.410E-02
     70 T=  1028. E= -.11701312E+02 F= -.12335277E+02 E0= -.12282582E+02  EK= 0.39879E+00 SP= 0.22E+00 SK= 0.16E-01
       N       E                     dE             d eps       ncg     rms          rms(c)
RMM:   1    -0.123424782882E+02   -0.72084E-02   -0.56731E-04    83   0.724E-02    0.341E-03
RMM:   2    -0.123424835387E+02   -0.52504E-05   -0.49470E-05    61   0.357E-02
     71 T=  1037. E= -.11701334E+02 F= -.12342484E+02 E0= -.12290261E+02  EK= 0.40203E+00 SP= 0.22E+00 SK= 0.16E-01
       N       E                     dE             d eps       ncg     rms          rms(c)
RMM:   1    -0.123467248144E+02   -0.42465E-02   -0.63041E-04    85   0.742E-02    0.402E-03
RMM:   2    -0.123467303904E+02   -0.55760E-05   -0.53976E-05    59   0.364E-02
     72 T=  1037. E= -.11701345E+02 F= -.12346730E+02 E0= -.12294894E+02  EK= 0.40224E+00 SP= 0.23E+00 SK= 0.16E-01
       N       E                     dE             d eps       ncg     rms          rms(c)
RMM:   1    -0.123479263063E+02   -0.12015E-02   -0.68195E-04    79   0.769E-02    0.288E-03
RMM:   2    -0.123479319673E+02   -0.56610E-05   -0.58176E-05    62   0.364E-02
     73 T=  1030. E= -.11701351E+02 F= -.12347932E+02 E0= -.12296381E+02  EK= 0.39938E+00 SP= 0.23E+00 SK= 0.17E-01
       N       E                     dE             d eps       ncg     rms          rms(c)
RMM:   1    -0.123461379222E+02    0.17884E-02   -0.68582E-04    77   0.735E-02    0.390E-03
RMM:   2    -0.123461444298E+02   -0.65076E-05   -0.64617E-05    57   0.362E-02
     74 T=  1015. E= -.11701351E+02 F= -.12346144E+02 E0= -.12294773E+02  EK= 0.39353E+00 SP= 0.23E+00 SK= 0.17E-01
       N       E                     dE             d eps       ncg     rms          rms(c)
RMM:   1    -0.123416133272E+02    0.45246E-02   -0.57276E-04    82   0.754E-02    0.643E-03
RMM:   2    -0.123416182064E+02   -0.48793E-05   -0.48888E-05    60   0.345E-02
     75 T=   993. E= -.11701332E+02 F= -.12341618E+02 E0= -.12290327E+02  EK= 0.38498E+00 SP= 0.24E+00 SK= 0.18E-01
       N       E                     dE             d eps       ncg     rms          rms(c)
RMM:   1    -0.123348229364E+02    0.67904E-02   -0.66403E-04    84   0.825E-02    0.420E-03
RMM:   2    -0.123348286178E+02   -0.56814E-05   -0.58295E-05    64   0.387E-02
     76 T=   965. E= -.11701288E+02 F= -.12334829E+02 E0= -.12283512E+02  EK= 0.37427E+00 SP= 0.24E+00 SK= 0.18E-01
       N       E                     dE             d eps       ncg     rms          rms(c)
RMM:   1    -0.123264891286E+02    0.83338E-02   -0.70018E-04    86   0.788E-02    0.516E-03
RMM:   2    -0.123264956456E+02   -0.65170E-05   -0.63269E-05    64   0.385E-02
     77 T=   934. E= -.11701228E+02 F= -.12326496E+02 E0= -.12275047E+02  EK= 0.36212E+00 SP= 0.25E+00 SK= 0.18E-01
       N       E                     dE             d eps       ncg     rms          rms(c)
RMM:   1    -0.123175593789E+02    0.89297E-02   -0.58184E-04    81   0.728E-02    0.517E-03
RMM:   2    -0.123175652421E+02   -0.58633E-05   -0.56452E-05    61   0.348E-02
     78 T=   901. E= -.11701157E+02 F= -.12317565E+02 E0= -.12265882E+02  EK= 0.34952E+00 SP= 0.25E+00 SK= 0.18E-01
       N       E                     dE             d eps       ncg     rms          rms(c)
RMM:   1    -0.123091359308E+02    0.84234E-02   -0.13573E-03    81   0.887E-02    0.948E-03
RMM:   2    -0.123091476283E+02   -0.11697E-04   -0.11613E-04    64   0.432E-02
     79 T=   871. E= -.11701083E+02 F= -.12309148E+02 E0= -.12257121E+02  EK= 0.33757E+00 SP= 0.25E+00 SK= 0.18E-01
       N       E                     dE             d eps       ncg     rms          rms(c)
RMM:   1    -0.123024101573E+02    0.67258E-02   -0.96915E-04    85   0.873E-02    0.499E-03
RMM:   2    -0.123024196519E+02   -0.94946E-05   -0.95629E-05    62   0.421E-02
     80 T=   844. E= -.11701023E+02 F= -.12302420E+02 E0= -.12249938E+02  EK= 0.32742E+00 SP= 0.26E+00 SK= 0.18E-01
       N       E                     dE             d eps       ncg     rms          rms(c)
RMM:   1    -0.122984746797E+02    0.39355E-02   -0.80139E-04    83   0.771E-02    0.418E-03
RMM:   2    -0.122984826963E+02   -0.80166E-05   -0.79002E-05    64   0.380E-02
     81 T=   826. E= -.11700972E+02 F= -.12298483E+02 E0= -.12245438E+02  EK= 0.32018E+00 SP= 0.26E+00 SK= 0.17E-01
       N       E                     dE             d eps       ncg     rms          rms(c)
RMM:   1    -0.122982150092E+02    0.25967E-03   -0.51295E-04    79   0.754E-02    0.452E-03
RMM:   2    -0.122982205452E+02   -0.55361E-05   -0.55624E-05    66   0.348E-02
     82 T=   817. E= -.11700932E+02 F= -.12298221E+02 E0= -.12244515E+02  EK= 0.31670E+00 SP= 0.26E+00 SK= 0.17E-01
       N       E                     dE             d eps       ncg     rms          rms(c)
RMM:   1    -0.123021540597E+02   -0.39391E-02   -0.62286E-04    78   0.644E-02    0.463E-03
RMM:   2    -0.123021595288E+02   -0.54691E-05   -0.54745E-05    59   0.302E-02
     83 T=   819. E= -.11700917E+02 F= -.12302160E+02 E0= -.12247703E+02  EK= 0.31744E+00 SP= 0.27E+00 SK= 0.16E-01
       N       E                     dE             d eps       ncg     rms          rms(c)
RMM:   1    -0.123103692367E+02   -0.82152E-02   -0.88625E-04    79   0.726E-02    0.525E-03
RMM:   2    -0.123103775064E+02   -0.82698E-05   -0.79773E-05    62   0.356E-02
     84 T=   831. E= -.11700941E+02 F= -.12310378E+02 E0= -.12255104E+02  EK= 0.32244E+00 SP= 0.27E+00 SK= 0.16E-01
       N       E                     dE             d eps       ncg     rms          rms(c)
RMM:   1    -0.123224690887E+02   -0.12100E-01   -0.90471E-04    80   0.681E-02    0.533E-03
RMM:   2    -0.123224777023E+02   -0.86136E-05   -0.84277E-05    64   0.336E-02
     85 T=   854. E= -.11701000E+02 F= -.12322478E+02 E0= -.12266336E+02  EK= 0.33124E+00 SP= 0.27E+00 SK= 0.16E-01
       N       E                     dE             d eps       ncg     rms          rms(c)
RMM:   1    -0.123376211225E+02   -0.15152E-01   -0.99290E-04    84   0.799E-02    0.450E-03
RMM:   2    -0.123376299281E+02   -0.88056E-05   -0.89183E-05    64   0.400E-02
     86 T=   885. E= -.11701078E+02 F= -.12337630E+02 E0= -.12280608E+02  EK= 0.34301E+00 SP= 0.28E+00 SK= 0.16E-01
       N       E                     dE             d eps       ncg     rms          rms(c)
RMM:   1    -0.123546671807E+02   -0.17046E-01   -0.11929E-03    85   0.895E-02    0.555E-03
RMM:   2    -0.123546784947E+02   -0.11314E-04   -0.10875E-04    67   0.446E-02
     87 T=   919. E= -.11701168E+02 F= -.12354678E+02 E0= -.12296805E+02  EK= 0.35655E+00 SP= 0.28E+00 SK= 0.16E-01
       N       E                     dE             d eps       ncg     rms          rms(c)
RMM:   1    -0.123722607694E+02   -0.17594E-01   -0.11384E-03    83   0.919E-02    0.437E-03
RMM:   2    -0.123722721970E+02   -0.11428E-04   -0.10980E-04    67   0.460E-02
     88 T=   955. E= -.11701264E+02 F= -.12372272E+02 E0= -.12313572E+02  EK= 0.37049E+00 SP= 0.28E+00 SK= 0.16E-01
       N       E                     dE             d eps       ncg     rms          rms(c)
RMM:   1    -0.123889811336E+02   -0.16720E-01   -0.85088E-04    88   0.886E-02    0.569E-03
RMM:   2    -0.123889902223E+02   -0.90888E-05   -0.87485E-05    65   0.449E-02
     89 T=   989. E= -.11701356E+02 F= -.12388990E+02 E0= -.12329528E+02  EK= 0.38342E+00 SP= 0.29E+00 SK= 0.16E-01
       N       E                     dE             d eps       ncg     rms          rms(c)
RMM:   1    -0.124034428304E+02   -0.14462E-01   -0.12939E-03    89   0.103E-01    0.398E-03
RMM:   2    -0.124034558934E+02   -0.13063E-04   -0.12388E-04    69   0.527E-02
     90 T=  1016. E= -.11701436E+02 F= -.12403456E+02 E0= -.12343318E+02  EK= 0.39395E+00 SP= 0.29E+00 SK= 0.16E-01
       N       E                     dE             d eps       ncg     rms          rms(c)
RMM:   1    -0.124144232747E+02   -0.10980E-01   -0.85007E-04    89   0.915E-02    0.459E-03
RMM:   2    -0.124144317177E+02   -0.84430E-05   -0.82862E-05    68   0.461E-02
     91 T=  1034. E= -.11701504E+02 F= -.12414432E+02 E0= -.12353717E+02  EK= 0.40088E+00 SP= 0.30E+00 SK= 0.17E-01
       N       E                     dE             d eps       ncg     rms          rms(c)
RMM:   1    -0.124208621475E+02   -0.64389E-02   -0.92316E-04    86   0.845E-02    0.109E-02
RMM:   2    -0.124208713506E+02   -0.92031E-05   -0.92688E-05    65   0.438E-02
     92 T=  1040. E= -.11701561E+02 F= -.12420871E+02 E0= -.12359714E+02  EK= 0.40318E+00 SP= 0.30E+00 SK= 0.17E-01
       N       E                     dE             d eps       ncg     rms          rms(c)
RMM:   1    -0.124219618137E+02   -0.10997E-02   -0.72029E-04    86   0.826E-02    0.756E-03
RMM:   2    -0.124219696617E+02   -0.78480E-05   -0.78263E-05    66   0.418E-02
     93 T=  1032. E= -.11701610E+02 F= -.12421970E+02 E0= -.12360526E+02  EK= 0.40010E+00 SP= 0.30E+00 SK= 0.17E-01
       N       E                     dE             d eps       ncg     rms          rms(c)
RMM:   1    -0.124171694896E+02    0.47923E-02   -0.12458E-03    87   0.923E-02    0.773E-03
RMM:   2    -0.124171804278E+02   -0.10938E-04   -0.11242E-04    66   0.485E-02
     94 T=  1009. E= -.11701636E+02 F= -.12417180E+02 E0= -.12355622E+02  EK= 0.39116E+00 SP= 0.31E+00 SK= 0.18E-01
       N       E                     dE             d eps       ncg     rms          rms(c)
RMM:   1    -0.124062337058E+02    0.10936E-01   -0.13595E-03    87   0.992E-02    0.618E-03
RMM:   2    -0.124062472870E+02   -0.13581E-04   -0.13311E-04    66   0.520E-02
     95 T=   970. E= -.11701643E+02 F= -.12406247E+02 E0= -.12344746E+02  EK= 0.37618E+00 SP= 0.31E+00 SK= 0.18E-01
       N       E                     dE             d eps       ncg     rms          rms(c)
RMM:   1    -0.123892162595E+02    0.17017E-01   -0.16464E-03    87   0.104E-01    0.767E-03
RMM:   2    -0.123892325735E+02   -0.16314E-04   -0.15950E-04    70   0.549E-02
     96 T=   916. E= -.11701632E+02 F= -.12389233E+02 E0= -.12327958E+02  EK= 0.35531E+00 SP= 0.31E+00 SK= 0.18E-01
       N       E                     dE             d eps       ncg     rms          rms(c)
RMM:   1    -0.123665379368E+02    0.22678E-01   -0.18252E-03    87   0.119E-01    0.529E-03
RMM:   2    -0.123665566710E+02   -0.18734E-04   -0.18310E-04    75   0.624E-02
     97 T=   849. E= -.11701591E+02 F= -.12366557E+02 E0= -.12305660E+02  EK= 0.32905E+00 SP= 0.32E+00 SK= 0.18E-01
       N       E                     dE             d eps       ncg     rms          rms(c)
RMM:   1    -0.123390090296E+02    0.27529E-01   -0.15057E-03    88   0.109E-01    0.811E-03
RMM:   2    -0.123390245151E+02   -0.15486E-04   -0.14884E-04    70   0.561E-02
     98 T=   769. E= -.11701521E+02 F= -.12339025E+02 E0= -.12278606E+02  EK= 0.29829E+00 SP= 0.32E+00 SK= 0.18E-01
       N       E                     dE             d eps       ncg     rms          rms(c)
RMM:   1    -0.123078181139E+02    0.31191E-01   -0.12765E-03    87   0.105E-01    0.396E-03
RMM:   2    -0.123078316609E+02   -0.13547E-04   -0.13285E-04    72   0.543E-02
     99 T=   682. E= -.11701422E+02 F= -.12307832E+02 E0= -.12247959E+02  EK= 0.26429E+00 SP= 0.33E+00 SK= 0.17E-01
       N       E                     dE             d eps       ncg     rms          rms(c)
RMM:   1    -0.122745439037E+02    0.33274E-01   -0.11601E-03    86   0.101E-01    0.437E-03
RMM:   2    -0.122745557477E+02   -0.11844E-04   -0.11985E-04    70   0.516E-02
    100 T=   590. E= -.11701303E+02 F= -.12274556E+02 E0= -.12215259E+02  EK= 0.22866E+00 SP= 0.33E+00 SK= 0.16E-01
       N       E                     dE             d eps       ncg     rms          rms(c)
RMM:   1    -0.122410782575E+02    0.33466E-01   -0.93932E-04    85   0.962E-02    0.384E-03
RMM:   2    -0.122410884578E+02   -0.10200E-04   -0.10108E-04    67   0.488E-02
    101 T=   498. E= -.11701173E+02 F= -.12241088E+02 E0= -.12182351E+02  EK= 0.19329E+00 SP= 0.33E+00 SK= 0.14E-01
       N       E                     dE             d eps       ncg     rms          rms(c)
RMM:   1    -0.122095198351E+02    0.31558E-01   -0.39245E-04    78   0.756E-02    0.739E-03
RMM:   2    -0.122095243488E+02   -0.45138E-05   -0.48913E-05    65   0.345E-02
    102 T=   413. E= -.11701047E+02 F= -.12209524E+02 E0= -.12151265E+02  EK= 0.16023E+00 SP= 0.34E+00 SK= 0.13E-01
       N       E                     dE             d eps       ncg     rms          rms(c)
RMM:   1    -0.121819844903E+02    0.27535E-01   -0.24989E-04    77   0.644E-02    0.455E-03
RMM:   2    -0.121819873397E+02   -0.28494E-05   -0.32365E-05    58   0.307E-02
    103 T=   339. E= -.11700926E+02 F= -.12181987E+02 E0= -.12124099E+02  EK= 0.13156E+00 SP= 0.34E+00 SK= 0.11E-01
       N       E                     dE             d eps       ncg     rms          rms(c)
RMM:   1    -0.121604276572E+02    0.21557E-01   -0.33942E-04    73   0.634E-02    0.777E-03
RMM:   2    -0.121604311015E+02   -0.34443E-05   -0.40039E-05    64   0.303E-02
    104 T=   282. E= -.11700822E+02 F= -.12160431E+02 E0= -.12102745E+02  EK= 0.10916E+00 SP= 0.34E+00 SK= 0.91E-02
       N       E                     dE             d eps       ncg     rms          rms(c)
RMM:   1    -0.121464261473E+02    0.14002E-01   -0.18882E-04    71   0.535E-02    0.676E-03
RMM:   2    -0.121464278769E+02   -0.17296E-05   -0.21877E-05    59   0.257E-02
    105 T=   244. E= -.11700753E+02 F= -.12146428E+02 E0= -.12088759E+02  EK= 0.94502E-01 SP= 0.34E+00 SK= 0.73E-02
       N       E                     dE             d eps       ncg     rms          rms(c)
RMM:   1    -0.121409903593E+02    0.54358E-02   -0.16864E-04    72   0.527E-02    0.575E-03
RMM:   2    -0.121409920669E+02   -0.17076E-05   -0.19227E-05    61   0.241E-02
    106 T=   228. E= -.11700727E+02 F= -.12140992E+02 E0= -.12083136E+02  EK= 0.88516E-01 SP= 0.35E+00 SK= 0.56E-02
       N       E                     dE             d eps       ncg     rms          rms(c)
RMM:   1    -0.121444717342E+02   -0.34814E-02   -0.23252E-04    72   0.483E-02    0.670E-03
RMM:   2    -0.121444737585E+02   -0.20242E-05   -0.22925E-05    56   0.230E-02
    107 T=   236. E= -.11700746E+02 F= -.12144474E+02 E0= -.12086208E+02  EK= 0.91488E-01 SP= 0.35E+00 SK= 0.42E-02
       N       E                     dE             d eps       ncg     rms          rms(c)
RMM:   1    -0.121565417245E+02   -0.12070E-01   -0.14553E-04    69   0.476E-02    0.583E-03
RMM:   2    -0.121565431998E+02   -0.14753E-05   -0.15612E-05    58   0.222E-02
    108 T=   266. E= -.11700801E+02 F= -.12156543E+02 E0= -.12097661E+02  EK= 0.10305E+00 SP= 0.35E+00 SK= 0.29E-02
       N       E                     dE             d eps       ncg     rms          rms(c)
RMM:   1    -0.121762585886E+02   -0.19717E-01   -0.22905E-04    72   0.505E-02    0.458E-03
RMM:   2    -0.121762606007E+02   -0.20121E-05   -0.22978E-05    60   0.242E-02
    109 T=   315. E= -.11700884E+02 F= -.12176261E+02 E0= -.12116565E+02  EK= 0.12225E+00 SP= 0.35E+00 SK= 0.20E-02
       N       E                     dE             d eps       ncg     rms          rms(c)
RMM:   1    -0.122022225464E+02   -0.25964E-01   -0.23346E-04    72   0.531E-02    0.393E-03
RMM:   2    -0.122022252148E+02   -0.26684E-05   -0.23903E-05    58   0.256E-02
    110 T=   381. E= -.11700985E+02 F= -.12202225E+02 E0= -.12141546E+02  EK= 0.14770E+00 SP= 0.35E+00 SK= 0.13E-02
       N       E                     dE             d eps       ncg     rms          rms(c)
RMM:   1    -0.122327551392E+02   -0.30533E-01   -0.28869E-04    75   0.515E-02    0.440E-03
RMM:   2    -0.122327583056E+02   -0.31664E-05   -0.29490E-05    57   0.251E-02
    111 T=   458. E= -.11701093E+02 F= -.12232758E+02 E0= -.12170965E+02  EK= 0.17772E+00 SP= 0.35E+00 SK= 0.81E-03
       N       E                     dE             d eps       ncg     rms          rms(c)
RMM:   1    -0.122660754939E+02   -0.33320E-01   -0.47862E-04    75   0.631E-02    0.538E-03
RMM:   2    -0.122660803331E+02   -0.48392E-05   -0.46439E-05    63   0.316E-02
    112 T=   543. E= -.11701194E+02 F= -.12266080E+02 E0= -.12203102E+02  EK= 0.21057E+00 SP= 0.35E+00 SK= 0.49E-03
       N       E                     dE             d eps       ncg     rms          rms(c)
RMM:   1    -0.123004522736E+02   -0.34377E-01   -0.93932E-04    79   0.769E-02    0.367E-03
RMM:   2    -0.123004612462E+02   -0.89726E-05   -0.87842E-05    64   0.396E-02
    113 T=   631. E= -.11701288E+02 F= -.12300461E+02 E0= -.12236299E+02  EK= 0.24452E+00 SP= 0.35E+00 SK= 0.29E-03
       N       E                     dE             d eps       ncg     rms          rms(c)
RMM:   1    -0.123343157778E+02   -0.33864E-01   -0.32725E-04    77   0.635E-02    0.459E-03
RMM:   2    -0.123343194470E+02   -0.36691E-05   -0.34588E-05    62   0.299E-02
    114 T=   717. E= -.11701368E+02 F= -.12334319E+02 E0= -.12269032E+02  EK= 0.27799E+00 SP= 0.35E+00 SK= 0.18E-03
       N       E                     dE             d eps       ncg     rms          rms(c)
RMM:   1    -0.123662613346E+02   -0.31946E-01   -0.78867E-04    81   0.739E-02    0.362E-03
RMM:   2    -0.123662689856E+02   -0.76509E-05   -0.73601E-05    63   0.387E-02
    115 T=   798. E= -.11701426E+02 F= -.12366269E+02 E0= -.12299995E+02  EK= 0.30962E+00 SP= 0.36E+00 SK= 0.12E-03
       N       E                     dE             d eps       ncg     rms          rms(c)
RMM:   1    -0.123951436250E+02   -0.28882E-01   -0.37016E-04    81   0.677E-02    0.557E-03
RMM:   2    -0.123951485091E+02   -0.48842E-05   -0.48524E-05    61   0.331E-02
    116 T=   872. E= -.11701479E+02 F= -.12395149E+02 E0= -.12328088E+02  EK= 0.33819E+00 SP= 0.36E+00 SK= 0.90E-04
       N       E                     dE             d eps       ncg     rms          rms(c)
RMM:   1    -0.124200053264E+02   -0.24862E-01   -0.96484E-05    66   0.457E-02    0.547E-03
RMM:   2    -0.124200065837E+02   -0.12573E-05   -0.10544E-05    53   0.188E-02
    117 T=   935. E= -.11701522E+02 F= -.12420007E+02 E0= -.12352394E+02  EK= 0.36276E+00 SP= 0.36E+00 SK= 0.85E-04
       N       E                     dE             d eps       ncg     rms          rms(c)
RMM:   1    -0.124401033880E+02   -0.20098E-01   -0.17947E-04    71   0.510E-02    0.356E-03
RMM:   2    -0.124401054050E+02   -0.20170E-05   -0.18753E-05    58   0.233E-02
    118 T=   987. E= -.11701548E+02 F= -.12440105E+02 E0= -.12372221E+02  EK= 0.38256E+00 SP= 0.36E+00 SK= 0.97E-04
       N       E                     dE             d eps       ncg     rms          rms(c)
RMM:   1    -0.124549161221E+02   -0.14813E-01   -0.39332E-04    73   0.553E-02    0.438E-03
RMM:   2    -0.124549197960E+02   -0.36739E-05   -0.35741E-05    55   0.269E-02
    119 T=  1024. E= -.11701556E+02 F= -.12454920E+02 E0= -.12387048E+02  EK= 0.39705E+00 SP= 0.36E+00 SK= 0.12E-03
       N       E                     dE             d eps       ncg     rms          rms(c)
RMM:   1    -0.124641335813E+02   -0.92175E-02   -0.49509E-04    77   0.585E-02    0.478E-03
RMM:   2    -0.124641379108E+02   -0.43295E-05   -0.43435E-05    57   0.291E-02
    120 T=  1047. E= -.11701553E+02 F= -.12464138E+02 E0= -.12396552E+02  EK= 0.40589E+00 SP= 0.36E+00 SK= 0.17E-03
       N       E                     dE             d eps       ncg     rms          rms(c)
RMM:   1    -0.124676573669E+02   -0.35238E-02   -0.40325E-04    74   0.555E-02    0.598E-03
RMM:   2    -0.124676609692E+02   -0.36023E-05   -0.39603E-05    58   0.277E-02
    121 T=  1055. E= -.11701546E+02 F= -.12467661E+02 E0= -.12400612E+02  EK= 0.40898E+00 SP= 0.36E+00 SK= 0.22E-03
       N       E                     dE             d eps       ncg     rms          rms(c)
RMM:   1    -0.124655973159E+02    0.20601E-02   -0.45067E-04    74   0.596E-02    0.519E-03
RMM:   2    -0.124656012784E+02   -0.39625E-05   -0.42827E-05    57   0.290E-02
    122 T=  1048. E= -.11701520E+02 F= -.12465601E+02 E0= -.12399293E+02  EK= 0.40644E+00 SP= 0.36E+00 SK= 0.29E-03
       N       E                     dE             d eps       ncg     rms          rms(c)
RMM:   1    -0.124582778685E+02    0.73194E-02   -0.66061E-04    78   0.701E-02    0.536E-03
RMM:   2    -0.124582837654E+02   -0.58969E-05   -0.62068E-05    61   0.344E-02
    123 T=  1028. E= -.11701474E+02 F= -.12458284E+02 E0= -.12392872E+02  EK= 0.39860E+00 SP= 0.36E+00 SK= 0.35E-03
       N       E                     dE             d eps       ncg     rms          rms(c)
RMM:   1    -0.124462443237E+02    0.12034E-01   -0.73617E-04    79   0.720E-02    0.418E-03
RMM:   2    -0.124462504117E+02   -0.60880E-05   -0.64004E-05    59   0.354E-02
    124 T=   995. E= -.11701413E+02 F= -.12446250E+02 E0= -.12381829E+02  EK= 0.38603E+00 SP= 0.36E+00 SK= 0.40E-03
       N       E                     dE             d eps       ncg     rms          rms(c)
RMM:   1    -0.124302470411E+02    0.15997E-01   -0.10604E-03    82   0.854E-02    0.413E-03
RMM:   2    -0.124302561395E+02   -0.90984E-05   -0.95915E-05    66   0.426E-02
    125 T=   953. E= -.11701340E+02 F= -.12430256E+02 E0= -.12366878E+02  EK= 0.36950E+00 SP= 0.36E+00 SK= 0.44E-03
       N       E                     dE             d eps       ncg     rms          rms(c)
RMM:   1    -0.124112514103E+02    0.18996E-01   -0.11657E-03    83   0.862E-02    0.539E-03
RMM:   2    -0.124112618057E+02   -0.10395E-04   -0.10599E-04    64   0.430E-02
    126 T=   903. E= -.11701264E+02 F= -.12411262E+02 E0= -.12348943E+02  EK= 0.34998E+00 SP= 0.36E+00 SK= 0.44E-03
       N       E                     dE             d eps       ncg     rms          rms(c)
RMM:   1    -0.123903804014E+02    0.20871E-01   -0.93915E-04    82   0.794E-02    0.628E-03
RMM:   2    -0.123903881047E+02   -0.77034E-05   -0.82535E-05    67   0.385E-02
    127 T=   847. E= -.11701177E+02 F= -.12390388E+02 E0= -.12329085E+02  EK= 0.32864E+00 SP= 0.36E+00 SK= 0.41E-03
       N       E                     dE             d eps       ncg     rms          rms(c)
RMM:   1    -0.123688542388E+02    0.21526E-01   -0.78390E-04    80   0.800E-02    0.536E-03
RMM:   2    -0.123688613933E+02   -0.71545E-05   -0.72901E-05    64   0.378E-02
    128 T=   791. E= -.11701082E+02 F= -.12368861E+02 E0= -.12308513E+02  EK= 0.30671E+00 SP= 0.36E+00 SK= 0.35E-03
       N       E                     dE             d eps       ncg     rms          rms(c)
RMM:   1    -0.123479393271E+02    0.20915E-01   -0.53067E-04    77   0.647E-02    0.661E-03
RMM:   2    -0.123479442213E+02   -0.48942E-05   -0.50947E-05    61   0.308E-02
    129 T=   736. E= -.11700990E+02 F= -.12347944E+02 E0= -.12288492E+02  EK= 0.28547E+00 SP= 0.36E+00 SK= 0.27E-03
       N       E                     dE             d eps       ncg     rms          rms(c)
RMM:   1    -0.123288468858E+02    0.19092E-01   -0.80082E-04    77   0.725E-02    0.392E-03
RMM:   2    -0.123288542103E+02   -0.73244E-05   -0.72678E-05    66   0.352E-02
    130 T=   686. E= -.11700911E+02 F= -.12328854E+02 E0= -.12270221E+02  EK= 0.26614E+00 SP= 0.36E+00 SK= 0.18E-03
       N       E                     dE             d eps       ncg     rms          rms(c)
RMM:   1    -0.123126846649E+02    0.16162E-01   -0.51459E-04    72   0.576E-02    0.471E-03
RMM:   2    -0.123126888505E+02   -0.41856E-05   -0.45665E-05    59   0.264E-02
    131 T=   644. E= -.11700853E+02 F= -.12312689E+02 E0= -.12254803E+02  EK= 0.24980E+00 SP= 0.36E+00 SK= 0.88E-04
       N       E                     dE             d eps       ncg     rms          rms(c)
RMM:   1    -0.123003325907E+02    0.12352E-01   -0.52106E-04    77   0.609E-02    0.464E-03
RMM:   2    -0.123003372942E+02   -0.47034E-05   -0.48064E-05    59   0.292E-02
    132 T=   612. E= -.11700812E+02 F= -.12300337E+02 E0= -.12243139E+02  EK= 0.23735E+00 SP= 0.36E+00 SK= 0.25E-04
       N       E                     dE             d eps       ncg     rms          rms(c)
RMM:   1    -0.122924214447E+02    0.79111E-02   -0.18725E-04    74   0.486E-02    0.539E-03
RMM:   2    -0.122924233480E+02   -0.19033E-05   -0.20167E-05    57   0.223E-02
    133 T=   592. E= -.11700786E+02 F= -.12292423E+02 E0= -.12235870E+02  EK= 0.22941E+00 SP= 0.36E+00 SK= 0.14E-07
       N       E                     dE             d eps       ncg     rms          rms(c)
RMM:   1    -0.122892539510E+02    0.31675E-02   -0.35690E-04    73   0.516E-02    0.796E-03
RMM:   2    -0.122892570918E+02   -0.31408E-05   -0.31040E-05    54   0.247E-02
    134 T=   584. E= -.11700778E+02 F= -.12289257E+02 E0= -.12233289E+02  EK= 0.22629E+00 SP= 0.36E+00 SK= 0.24E-04
       N       E                     dE             d eps       ncg     rms          rms(c)
RMM:   1    -0.122908323698E+02   -0.15784E-02   -0.71582E-05    68   0.430E-02    0.311E-03
RMM:   2    -0.122908332384E+02   -0.86864E-06   -0.86882E-06    58   0.182E-02
    135 T=   588. E= -.11700795E+02 F= -.12290833E+02 E0= -.12235390E+02  EK= 0.22799E+00 SP= 0.36E+00 SK= 0.10E-03
       N       E                     dE             d eps       ncg     rms          rms(c)
RMM:   1    -0.122968332832E+02   -0.60009E-02   -0.86948E-05    68   0.391E-02    0.464E-03
RMM:   2    -0.122968339764E+02   -0.69323E-06   -0.89857E-06    48   0.164E-02
    136 T=   604. E= -.11700829E+02 F= -.12296834E+02 E0= -.12241859E+02  EK= 0.23418E+00 SP= 0.36E+00 SK= 0.22E-03
       N       E                     dE             d eps       ncg     rms          rms(c)
RMM:   1    -0.123066675434E+02   -0.98343E-02   -0.95026E-05    67   0.434E-02    0.399E-03
RMM:   2    -0.123066684836E+02   -0.94016E-06   -0.10354E-05    60   0.189E-02
    137 T=   630. E= -.11700874E+02 F= -.12306668E+02 E0= -.12252098E+02  EK= 0.24430E+00 SP= 0.36E+00 SK= 0.38E-03
       N       E                     dE             d eps       ncg     rms          rms(c)
RMM:   1    -0.123195209434E+02   -0.12853E-01   -0.20933E-04    74   0.442E-02    0.507E-03
RMM:   2    -0.123195221262E+02   -0.11828E-05   -0.16798E-05    54   0.204E-02
    138 T=   664. E= -.11700928E+02 F= -.12319522E+02 E0= -.12265286E+02  EK= 0.25752E+00 SP= 0.36E+00 SK= 0.56E-03
       N       E                     dE             d eps       ncg     rms          rms(c)
RMM:   1    -0.123344239012E+02   -0.14903E-01   -0.15312E-04    72   0.492E-02    0.471E-03
RMM:   2    -0.123344253377E+02   -0.14364E-05   -0.15650E-05    59   0.222E-02
    139 T=   704. E= -.11700989E+02 F= -.12334425E+02 E0= -.12280430E+02  EK= 0.27290E+00 SP= 0.36E+00 SK= 0.74E-03
       N       E                     dE             d eps       ncg     rms          rms(c)
RMM:   1    -0.123503280072E+02   -0.15904E-01   -0.19875E-04    74   0.469E-02    0.532E-03
RMM:   2    -0.123503295675E+02   -0.15603E-05   -0.16319E-05    52   0.211E-02
    140 T=   746. E= -.11701047E+02 F= -.12350330E+02 E0= -.12296464E+02  EK= 0.28939E+00 SP= 0.36E+00 SK= 0.91E-03
       N       E                     dE             d eps       ncg     rms          rms(c)
RMM:   1    -0.123661804519E+02   -0.15852E-01   -0.16707E-04    72   0.497E-02    0.337E-03
RMM:   2    -0.123661823376E+02   -0.18856E-05   -0.15902E-05    55   0.214E-02
    141 T=   789. E= -.11701100E+02 F= -.12366182E+02 E0= -.12312325E+02  EK= 0.30592E+00 SP= 0.36E+00 SK= 0.11E-02
       N       E                     dE             d eps       ncg     rms          rms(c)
RMM:   1    -0.123809854010E+02   -0.14805E-01   -0.15105E-04    67   0.449E-02    0.367E-03
RMM:   2    -0.123809860510E+02   -0.65001E-06   -0.12277E-05    52   0.196E-02
    142 T=   829. E= -.11701149E+02 F= -.12380986E+02 E0= -.12327001E+02  EK= 0.32150E+00 SP= 0.36E+00 SK= 0.12E-02
       N       E                     dE             d eps       ncg     rms          rms(c)
RMM:   1    -0.123938525643E+02   -0.12867E-01   -0.15942E-04    71   0.492E-02    0.499E-03
RMM:   2    -0.123938544730E+02   -0.19087E-05   -0.15777E-05    58   0.217E-02
    143 T=   864. E= -.11701188E+02 F= -.12393854E+02 E0= -.12339597E+02  EK= 0.33523E+00 SP= 0.36E+00 SK= 0.12E-02
       N       E                     dE             d eps       ncg     rms          rms(c)
RMM:   1    -0.124040511251E+02   -0.10199E-01   -0.27721E-04    68   0.520E-02    0.217E-03
RMM:   2    -0.124040535116E+02   -0.23864E-05   -0.22951E-05    54   0.224E-02
    144 T=   893. E= -.11701213E+02 F= -.12404054E+02 E0= -.12349379E+02  EK= 0.34636E+00 SP= 0.36E+00 SK= 0.13E-02
       N       E                     dE             d eps       ncg     rms          rms(c)
RMM:   1    -0.124110391453E+02   -0.69880E-02   -0.17036E-04    72   0.479E-02    0.348E-03
RMM:   2    -0.124110408300E+02   -0.16847E-05   -0.15525E-05    51   0.213E-02
    145 T=   914. E= -.11701224E+02 F= -.12411041E+02 E0= -.12355803E+02  EK= 0.35433E+00 SP= 0.35E+00 SK= 0.13E-02
       N       E                     dE             d eps       ncg     rms          rms(c)
RMM:   1    -0.124144841887E+02   -0.34450E-02   -0.16784E-04    70   0.472E-02    0.339E-03
RMM:   2    -0.124144856802E+02   -0.14915E-05   -0.13789E-05    51   0.202E-02
    146 T=   925. E= -.11701218E+02 F= -.12414486E+02 E0= -.12358560E+02  EK= 0.35879E+00 SP= 0.35E+00 SK= 0.13E-02
       N       E                     dE             d eps       ncg     rms          rms(c)
RMM:   1    -0.124142675347E+02    0.21665E-03   -0.11973E-04    65   0.466E-02    0.278E-03
RMM:   2    -0.124142686450E+02   -0.11103E-05   -0.11874E-05    52   0.195E-02
    147 T=   927. E= -.11701200E+02 F= -.12414269E+02 E0= -.12357543E+02  EK= 0.35961E+00 SP= 0.35E+00 SK= 0.13E-02
       N       E                     dE             d eps       ncg     rms          rms(c)
RMM:   1    -0.124104487460E+02    0.38188E-02   -0.93207E-05    66   0.397E-02    0.322E-03
RMM:   2    -0.124104496599E+02   -0.91392E-06   -0.82309E-06    49   0.176E-02
    148 T=   920. E= -.11701176E+02 F= -.12410450E+02 E0= -.12352833E+02  EK= 0.35683E+00 SP= 0.35E+00 SK= 0.13E-02
       N       E                     dE             d eps       ncg     rms          rms(c)
RMM:   1    -0.124032226254E+02    0.72261E-02   -0.90782E-05    65   0.410E-02    0.258E-03
RMM:   2    -0.124032235117E+02   -0.88632E-06   -0.81116E-06    48   0.171E-02
    149 T=   904. E= -.11701147E+02 F= -.12403224E+02 E0= -.12344649E+02  EK= 0.35063E+00 SP= 0.35E+00 SK= 0.13E-02
       N       E                     dE             d eps       ncg     rms          rms(c)
RMM:   1    -0.123928737319E+02    0.10349E-01   -0.20444E-04    73   0.487E-02    0.171E-03
RMM:   2    -0.123928753942E+02   -0.16622E-05   -0.16825E-05    52   0.220E-02
    150 T=   880. E= -.11701115E+02 F= -.12392875E+02 E0= -.12333307E+02  EK= 0.34130E+00 SP= 0.35E+00 SK= 0.13E-02
       N       E                     dE             d eps       ncg     rms          rms(c)
RMM:   1    -0.123797584192E+02    0.13115E-01   -0.19260E-04    72   0.501E-02    0.257E-03
RMM:   2    -0.123797602958E+02   -0.18766E-05   -0.18209E-05    56   0.237E-02
    151 T=   849. E= -.11701079E+02 F= -.12379760E+02 E0= -.12319188E+02  EK= 0.32919E+00 SP= 0.35E+00 SK= 0.14E-02
       N       E                     dE             d eps       ncg     rms          rms(c)
RMM:   1    -0.123642983841E+02    0.15460E-01   -0.12009E-04    66   0.423E-02    0.194E-03
RMM:   2    -0.123642995141E+02   -0.11300E-05   -0.11065E-05    53   0.188E-02
    152 T=   812. E= -.11701038E+02 F= -.12364300E+02 E0= -.12302744E+02  EK= 0.31473E+00 SP= 0.35E+00 SK= 0.15E-02
       N       E                     dE             d eps       ncg     rms          rms(c)
RMM:   1    -0.123469795076E+02    0.17319E-01   -0.18005E-04    70   0.478E-02    0.252E-03
RMM:   2    -0.123469809684E+02   -0.14608E-05   -0.15223E-05    53   0.215E-02
    153 T=   770. E= -.11700993E+02 F= -.12346981E+02 E0= -.12284488E+02  EK= 0.29841E+00 SP= 0.35E+00 SK= 0.17E-02
       N       E                     dE             d eps       ncg     rms          rms(c)
RMM:   1    -0.123283505131E+02    0.18629E-01   -0.38732E-04    78   0.633E-02    0.399E-03
RMM:   2    -0.123283537533E+02   -0.32402E-05   -0.31650E-05    57   0.299E-02
    154 T=   724. E= -.11700947E+02 F= -.12328354E+02 E0= -.12264993E+02  EK= 0.28078E+00 SP= 0.34E+00 SK= 0.19E-02
       N       E                     dE             d eps       ncg     rms          rms(c)
RMM:   1    -0.123090075198E+02    0.19343E-01   -0.37121E-04    79   0.622E-02    0.252E-03
RMM:   2    -0.123090107641E+02   -0.32444E-05   -0.32794E-05    57   0.296E-02
    155 T=   677. E= -.11700902E+02 F= -.12309011E+02 E0= -.12244869E+02  EK= 0.26244E+00 SP= 0.34E+00 SK= 0.22E-02
       N       E                     dE             d eps       ncg     rms          rms(c)
RMM:   1    -0.122895664791E+02    0.19441E-01   -0.23160E-04    69   0.538E-02    0.478E-03
RMM:   2    -0.122895687821E+02   -0.23030E-05   -0.22505E-05    55   0.247E-02
    156 T=   629. E= -.11700857E+02 F= -.12289569E+02 E0= -.12224753E+02  EK= 0.24400E+00 SP= 0.34E+00 SK= 0.26E-02
       N       E                     dE             d eps       ncg     rms          rms(c)
RMM:   1    -0.122706484735E+02    0.18918E-01   -0.22936E-04    71   0.522E-02    0.268E-03
RMM:   2    -0.122706505058E+02   -0.20323E-05   -0.20848E-05    57   0.245E-02
    157 T=   583. E= -.11700813E+02 F= -.12270651E+02 E0= -.12205272E+02  EK= 0.22611E+00 SP= 0.34E+00 SK= 0.31E-02
       N       E                     dE             d eps       ncg     rms          rms(c)
RMM:   1    -0.122528757394E+02    0.17773E-01   -0.26973E-04    75   0.535E-02    0.237E-03
RMM:   2    -0.122528780228E+02   -0.22833E-05   -0.24239E-05    55   0.253E-02
    158 T=   540. E= -.11700771E+02 F= -.12252878E+02 E0= -.12187052E+02  EK= 0.20937E+00 SP= 0.34E+00 SK= 0.37E-02
       N       E                     dE             d eps       ncg     rms          rms(c)
RMM:   1    -0.122368607442E+02    0.16015E-01   -0.27069E-04    80   0.559E-02    0.344E-03
RMM:   2    -0.122368630612E+02   -0.23170E-05   -0.23346E-05    60   0.273E-02
    159 T=   501. E= -.11700733E+02 F= -.12236863E+02 E0= -.12170708E+02  EK= 0.19440E+00 SP= 0.34E+00 SK= 0.45E-02
       N       E                     dE             d eps       ncg     rms          rms(c)
RMM:   1    -0.122231909201E+02    0.13670E-01   -0.17880E-04    75   0.467E-02    0.459E-03
RMM:   2    -0.122231924013E+02   -0.14812E-05   -0.15791E-05    49   0.213E-02
    160 T=   469. E= -.11700700E+02 F= -.12223192E+02 E0= -.12156819E+02  EK= 0.18179E+00 SP= 0.34E+00 SK= 0.54E-02
       N       E                     dE             d eps       ncg     rms          rms(c)
RMM:   1    -0.122124069415E+02    0.10784E-01   -0.29523E-04    72   0.552E-02    0.402E-03
RMM:   2    -0.122124095282E+02   -0.25867E-05   -0.28049E-05    56   0.264E-02
    161 T=   444. E= -.11700672E+02 F= -.12212410E+02 E0= -.12145920E+02  EK= 0.17211E+00 SP= 0.33E+00 SK= 0.65E-02
       N       E                     dE             d eps       ncg     rms          rms(c)
RMM:   1    -0.122049873484E+02    0.74196E-02   -0.30197E-04    75   0.522E-02    0.303E-03
RMM:   2    -0.122049901166E+02   -0.27682E-05   -0.27305E-05    55   0.259E-02
    162 T=   428. E= -.11700650E+02 F= -.12204990E+02 E0= -.12138472E+02  EK= 0.16583E+00 SP= 0.33E+00 SK= 0.78E-02
       N       E                     dE             d eps       ncg     rms          rms(c)
RMM:   1    -0.122013124165E+02    0.36749E-02   -0.35104E-04    75   0.535E-02    0.239E-03
RMM:   2    -0.122013156931E+02   -0.32766E-05   -0.32069E-05    58   0.270E-02
    163 T=   421. E= -.11700637E+02 F= -.12201316E+02 E0= -.12134841E+02  EK= 0.16335E+00 SP= 0.33E+00 SK= 0.91E-02
       N       E                     dE             d eps       ncg     rms          rms(c)
RMM:   1    -0.122016418132E+02   -0.32940E-03   -0.40748E-04    77   0.524E-02    0.228E-03
RMM:   2    -0.122016454713E+02   -0.36581E-05   -0.36689E-05    56   0.265E-02
    164 T=   425. E= -.11700633E+02 F= -.12201645E+02 E0= -.12135279E+02  EK= 0.16497E+00 SP= 0.33E+00 SK= 0.11E-01
       N       E                     dE             d eps       ncg     rms          rms(c)
RMM:   1    -0.122060908744E+02   -0.44491E-02   -0.51958E-04    77   0.568E-02    0.372E-03
RMM:   2    -0.122060958241E+02   -0.49497E-05   -0.49034E-05    59   0.294E-02
    165 T=   440. E= -.11700640E+02 F= -.12206096E+02 E0= -.12139877E+02  EK= 0.17082E+00 SP= 0.32E+00 SK= 0.12E-01
       N       E                     dE             d eps       ncg     rms          rms(c)
RMM:   1    -0.122146228840E+02   -0.85320E-02   -0.39701E-04    79   0.556E-02    0.284E-03
RMM:   2    -0.122146266639E+02   -0.37800E-05   -0.36664E-05    60   0.276E-02
    166 T=   467. E= -.11700657E+02 F= -.12214627E+02 E0= -.12148589E+02  EK= 0.18091E+00 SP= 0.32E+00 SK= 0.14E-01
       N       E                     dE             d eps       ncg     rms          rms(c)
RMM:   1    -0.122270217183E+02   -0.12399E-01   -0.67187E-04    80   0.655E-02    0.212E-03
RMM:   2    -0.122270277089E+02   -0.59906E-05   -0.58221E-05    63   0.335E-02
    167 T=   503. E= -.11700681E+02 F= -.12227028E+02 E0= -.12161192E+02  EK= 0.19507E+00 SP= 0.32E+00 SK= 0.15E-01
       N       E                     dE             d eps       ncg     rms          rms(c)
RMM:   1    -0.122429088456E+02   -0.15887E-01   -0.70598E-04    83   0.660E-02    0.359E-03
RMM:   2    -0.122429157202E+02   -0.68746E-05   -0.67250E-05    62   0.336E-02
    168 T=   549. E= -.11700716E+02 F= -.12242916E+02 E0= -.12177281E+02  EK= 0.21296E+00 SP= 0.31E+00 SK= 0.17E-01
       N       E                     dE             d eps       ncg     rms          rms(c)
RMM:   1    -0.122617272442E+02   -0.18818E-01   -0.83314E-04    83   0.721E-02    0.270E-03
RMM:   2    -0.122617349165E+02   -0.76724E-05   -0.75418E-05    63   0.363E-02
    169 T=   604. E= -.11700768E+02 F= -.12261735E+02 E0= -.12196295E+02  EK= 0.23406E+00 SP= 0.31E+00 SK= 0.18E-01
       N       E                     dE             d eps       ncg     rms          rms(c)
RMM:   1    -0.122827727995E+02   -0.21046E-01   -0.30118E-04    75   0.548E-02    0.444E-03
RMM:   2    -0.122827760497E+02   -0.32502E-05   -0.31173E-05    56   0.252E-02
    170 T=   665. E= -.11700826E+02 F= -.12282776E+02 E0= -.12217503E+02  EK= 0.25770E+00 SP= 0.30E+00 SK= 0.20E-01
       N       E                     dE             d eps       ncg     rms          rms(c)
RMM:   1    -0.123051993964E+02   -0.22427E-01   -0.66453E-04    78   0.687E-02    0.617E-03
RMM:   2    -0.123052058939E+02   -0.64976E-05   -0.64017E-05    65   0.344E-02
    171 T=   730. E= -.11700879E+02 F= -.12305206E+02 E0= -.12240062E+02  EK= 0.28309E+00 SP= 0.30E+00 SK= 0.21E-01
       N       E                     dE             d eps       ncg     rms          rms(c)
RMM:   1    -0.123281195748E+02   -0.22920E-01   -0.33911E-04    75   0.578E-02    0.429E-03
RMM:   2    -0.123281231741E+02   -0.35992E-05   -0.35554E-05    61   0.261E-02
    172 T=   798. E= -.11700937E+02 F= -.12328123E+02 E0= -.12263047E+02  EK= 0.30930E+00 SP= 0.30E+00 SK= 0.21E-01
       N       E                     dE             d eps       ncg     rms          rms(c)
RMM:   1    -0.123505945531E+02   -0.22475E-01   -0.36785E-04    72   0.536E-02    0.635E-03
RMM:   2    -0.123505980282E+02   -0.34751E-05   -0.33267E-05    56   0.237E-02
    173 T=   865. E= -.11700998E+02 F= -.12350598E+02 E0= -.12285507E+02  EK= 0.33542E+00 SP= 0.29E+00 SK= 0.22E-01
       N       E                     dE             d eps       ncg     rms          rms(c)
RMM:   1    -0.123717078639E+02   -0.21113E-01   -0.43774E-04    74   0.610E-02    0.666E-03
RMM:   2    -0.123717123207E+02   -0.44567E-05   -0.47350E-05    61   0.276E-02
    174 T=   930. E= -.11701056E+02 F= -.12371712E+02 E0= -.12306528E+02  EK= 0.36049E+00 SP= 0.29E+00 SK= 0.22E-01
       N       E                     dE             d eps       ncg     rms          rms(c)
RMM:   1    -0.123905722050E+02   -0.18864E-01   -0.44670E-04    76   0.607E-02    0.411E-03
RMM:   2    -0.123905765406E+02   -0.43356E-05   -0.40619E-05    60   0.275E-02
    175 T=   989. E= -.11701113E+02 F= -.12390577E+02 E0= -.12325205E+02  EK= 0.38359E+00 SP= 0.28E+00 SK= 0.22E-01
       N       E                     dE             d eps       ncg     rms          rms(c)
RMM:   1    -0.124063382717E+02   -0.15766E-01   -0.78986E-04    82   0.729E-02    0.513E-03
RMM:   2    -0.124063450659E+02   -0.67942E-05   -0.67524E-05    65   0.358E-02
    176 T=  1041. E= -.11701166E+02 F= -.12406345E+02 E0= -.12340698E+02  EK= 0.40381E+00 SP= 0.28E+00 SK= 0.21E-01
       N       E                     dE             d eps       ncg     rms          rms(c)
RMM:   1    -0.124182280297E+02   -0.11890E-01   -0.10986E-03    85   0.839E-02    0.306E-03
RMM:   2    -0.124182383750E+02   -0.10345E-04   -0.10214E-04    69   0.421E-02
    177 T=  1084. E= -.11701217E+02 F= -.12418238E+02 E0= -.12352239E+02  EK= 0.42032E+00 SP= 0.28E+00 SK= 0.20E-01
       N       E                     dE             d eps       ncg     rms          rms(c)
RMM:   1    -0.124255482629E+02   -0.73202E-02   -0.10974E-03    89   0.897E-02    0.292E-03
RMM:   2    -0.124255585289E+02   -0.10266E-04   -0.98645E-05    70   0.445E-02
    178 T=  1115. E= -.11701263E+02 F= -.12425559E+02 E0= -.12359158E+02  EK= 0.43233E+00 SP= 0.27E+00 SK= 0.20E-01
       N       E                     dE             d eps       ncg     rms          rms(c)
RMM:   1    -0.124276773068E+02   -0.21290E-02   -0.12280E-03    87   0.986E-02    0.243E-03
RMM:   2    -0.124276896513E+02   -0.12345E-04   -0.11633E-04    74   0.506E-02
    179 T=  1133. E= -.11701299E+02 F= -.12427690E+02 E0= -.12360871E+02  EK= 0.43916E+00 SP= 0.27E+00 SK= 0.19E-01
       N       E                     dE             d eps       ncg     rms          rms(c)
RMM:   1    -0.124240997408E+02    0.35776E-02   -0.87719E-04    88   0.910E-02    0.405E-03
RMM:   2    -0.124241085059E+02   -0.87651E-05   -0.84165E-05    70   0.454E-02
    180 T=  1135. E= -.11701321E+02 F= -.12424109E+02 E0= -.12356891E+02  EK= 0.44024E+00 SP= 0.26E+00 SK= 0.18E-01
       N       E                     dE             d eps       ncg     rms          rms(c)
RMM:   1    -0.124143895214E+02    0.97102E-02   -0.12463E-03    88   0.103E-01    0.506E-03
RMM:   2    -0.124144022724E+02   -0.12751E-04   -0.12303E-04    74   0.538E-02
    181 T=  1122. E= -.11701327E+02 F= -.12414402E+02 E0= -.12346858E+02  EK= 0.43506E+00 SP= 0.26E+00 SK= 0.17E-01
       N       E                     dE             d eps       ncg     rms          rms(c)
RMM:   1    -0.123983227465E+02    0.16067E-01   -0.97406E-04    87   0.918E-02    0.412E-03
RMM:   2    -0.123983317863E+02   -0.90399E-05   -0.91209E-05    71   0.436E-02
    182 T=  1092. E= -.11701327E+02 F= -.12398332E+02 E0= -.12330564E+02  EK= 0.42334E+00 SP= 0.26E+00 SK= 0.16E-01
       N       E                     dE             d eps       ncg     rms          rms(c)
RMM:   1    -0.123758788388E+02    0.22444E-01   -0.17496E-03    88   0.110E-01    0.743E-03
RMM:   2    -0.123758951969E+02   -0.16358E-04   -0.16274E-04    72   0.557E-02
    183 T=  1044. E= -.11701312E+02 F= -.12375895E+02 E0= -.12308052E+02  EK= 0.40503E+00 SP= 0.25E+00 SK= 0.16E-01
       N       E                     dE             d eps       ncg     rms          rms(c)
RMM:   1    -0.123474302005E+02    0.28449E-01   -0.10298E-03    83   0.947E-02    0.627E-03
RMM:   2    -0.123474407063E+02   -0.10506E-04   -0.10728E-04    67   0.443E-02
    184 T=   981. E= -.11701280E+02 F= -.12347441E+02 E0= -.12279672E+02  EK= 0.38045E+00 SP= 0.25E+00 SK= 0.15E-01
       N       E                     dE             d eps       ncg     rms          rms(c)
RMM:   1    -0.123137314263E+02    0.33699E-01   -0.81660E-04    84   0.894E-02    0.549E-03
RMM:   2    -0.123137397391E+02   -0.83128E-05   -0.86210E-05    69   0.419E-02
    185 T=   904. E= -.11701204E+02 F= -.12313740E+02 E0= -.12246226E+02  EK= 0.35038E+00 SP= 0.25E+00 SK= 0.15E-01
       N       E                     dE             d eps       ncg     rms          rms(c)
RMM:   1    -0.122760480581E+02    0.37683E-01   -0.14086E-03    85   0.110E-01    0.103E-02
RMM:   2    -0.122760617122E+02   -0.13654E-04   -0.14329E-04    74   0.538E-02
    186 T=   815. E= -.11701076E+02 F= -.12276062E+02 E0= -.12208993E+02  EK= 0.31607E+00 SP= 0.24E+00 SK= 0.16E-01
       N       E                     dE             d eps       ncg     rms          rms(c)
RMM:   1    -0.122362204708E+02    0.39828E-01   -0.43136E-04    86   0.872E-02    0.775E-03
RMM:   2    -0.122362249157E+02   -0.44449E-05   -0.48999E-05    65   0.381E-02
    187 T=   720. E= -.11700921E+02 F= -.12236225E+02 E0= -.12169778E+02  EK= 0.27932E+00 SP= 0.24E+00 SK= 0.16E-01
       N       E                     dE             d eps       ncg     rms          rms(c)
RMM:   1    -0.121965434770E+02    0.39677E-01   -0.69276E-04    84   0.932E-02    0.501E-03
RMM:   2    -0.121965511110E+02   -0.76340E-05   -0.78889E-05    69   0.436E-02
    188 T=   625. E= -.11700747E+02 F= -.12196551E+02 E0= -.12130895E+02  EK= 0.24245E+00 SP= 0.24E+00 SK= 0.17E-01
       N       E                     dE             d eps       ncg     rms          rms(c)
RMM:   1    -0.121597501469E+02    0.36793E-01   -0.33663E-04    80   0.799E-02    0.637E-03
RMM:   2    -0.121597542913E+02   -0.41444E-05   -0.45223E-05    65   0.356E-02
    189 T=   537. E= -.11700576E+02 F= -.12159754E+02 E0= -.12095021E+02  EK= 0.20817E+00 SP= 0.23E+00 SK= 0.19E-01
       N       E                     dE             d eps       ncg     rms          rms(c)
RMM:   1    -0.121286750193E+02    0.31075E-01   -0.16330E-04    73   0.618E-02    0.548E-03
RMM:   2    -0.121286763543E+02   -0.13350E-05   -0.20365E-05    60   0.255E-02
    190 T=   463. E= -.11700424E+02 F= -.12128676E+02 E0= -.12064974E+02  EK= 0.17936E+00 SP= 0.23E+00 SK= 0.20E-01
       N       E                     dE             d eps       ncg     rms          rms(c)
RMM:   1    -0.121059468189E+02    0.22728E-01   -0.22988E-04    74   0.638E-02    0.688E-03
RMM:   2    -0.121059492806E+02   -0.24617E-05   -0.27408E-05    61   0.281E-02
    191 T=   409. E= -.11700304E+02 F= -.12105949E+02 E0= -.12043364E+02  EK= 0.15868E+00 SP= 0.22E+00 SK= 0.22E-01
       N       E                     dE             d eps       ncg     rms          rms(c)
RMM:   1    -0.120936236283E+02    0.12323E-01   -0.24065E-04    75   0.527E-02    0.493E-03
RMM:   2    -0.120936258770E+02   -0.22487E-05   -0.24684E-05    60   0.245E-02
    192 T=   382. E= -.11700241E+02 F= -.12093626E+02 E0= -.12032199E+02  EK= 0.14827E+00 SP= 0.22E+00 SK= 0.25E-01
       N       E                     dE             d eps       ncg     rms          rms(c)
RMM:   1    -0.120928610563E+02    0.76257E-03   -0.37909E-04    77   0.586E-02    0.118E-02
RMM:   2    -0.120928645225E+02   -0.34661E-05   -0.39233E-05    59   0.292E-02
    193 T=   385. E= -.11700249E+02 F= -.12092865E+02 E0= -.12032610E+02  EK= 0.14939E+00 SP= 0.22E+00 SK= 0.28E-01
       N       E                     dE             d eps       ncg     rms          rms(c)
RMM:   1    -0.121037458726E+02   -0.10885E-01   -0.24388E-04    74   0.527E-02    0.649E-03
RMM:   2    -0.121037475477E+02   -0.16751E-05   -0.25016E-05    61   0.253E-02
    194 T=   418. E= -.11700321E+02 F= -.12103748E+02 E0= -.12044624E+02  EK= 0.16228E+00 SP= 0.21E+00 SK= 0.30E-01
       N       E                     dE             d eps       ncg     rms          rms(c)
RMM:   1    -0.121252563397E+02   -0.21510E-01   -0.37173E-04    76   0.569E-02    0.433E-03
RMM:   2    -0.121252601376E+02   -0.37979E-05   -0.36065E-05    61   0.280E-02
    195 T=   480. E= -.11700444E+02 F= -.12125260E+02 E0= -.12067183E+02  EK= 0.18610E+00 SP= 0.21E+00 SK= 0.33E-01
       N       E                     dE             d eps       ncg     rms          rms(c)
RMM:   1    -0.121554404232E+02   -0.30184E-01   -0.37070E-04    75   0.617E-02    0.496E-03
RMM:   2    -0.121554442536E+02   -0.38303E-05   -0.40801E-05    64   0.302E-02
    196 T=   565. E= -.11700607E+02 F= -.12155444E+02 E0= -.12098291E+02  EK= 0.21905E+00 SP= 0.20E+00 SK= 0.35E-01
       N       E                     dE             d eps       ncg     rms          rms(c)
RMM:   1    -0.121916793900E+02   -0.36239E-01   -0.47050E-04    78   0.620E-02    0.641E-03
RMM:   2    -0.121916841815E+02   -0.47915E-05   -0.48437E-05    63   0.307E-02
    197 T=   667. E= -.11700793E+02 F= -.12191684E+02 E0= -.12135295E+02  EK= 0.25866E+00 SP= 0.20E+00 SK= 0.37E-01
       N       E                     dE             d eps       ncg     rms          rms(c)
RMM:   1    -0.122310508680E+02   -0.39371E-01   -0.45059E-04    76   0.638E-02    0.598E-03
RMM:   2    -0.122310558623E+02   -0.49944E-05   -0.47649E-05    64   0.306E-02
    198 T=   779. E= -.11700975E+02 F= -.12231056E+02 E0= -.12175218E+02  EK= 0.30210E+00 SP= 0.19E+00 SK= 0.38E-01
       N       E                     dE             d eps       ncg     rms          rms(c)
RMM:   1    -0.122706578256E+02   -0.39607E-01   -0.53299E-04    77   0.679E-02    0.725E-03
RMM:   2    -0.122706628831E+02   -0.50575E-05   -0.51334E-05    65   0.322E-02
    199 T=   894. E= -.11701133E+02 F= -.12270663E+02 E0= -.12215141E+02  EK= 0.34652E+00 SP= 0.18E+00 SK= 0.38E-01
       N       E                     dE             d eps       ncg     rms          rms(c)
RMM:   1    -0.123078863488E+02   -0.37229E-01   -0.93904E-04    81   0.822E-02    0.835E-03
RMM:   2    -0.123078962297E+02   -0.98809E-05   -0.92144E-05    70   0.411E-02
    200 T=  1004. E= -.11701259E+02 F= -.12307896E+02 E0= -.12252451E+02  EK= 0.38928E+00 SP= 0.18E+00 SK= 0.38E-01
       N       E                     dE             d eps       ncg     rms          rms(c)
RMM:   1    -0.123405990624E+02   -0.32713E-01   -0.99999E-04    83   0.860E-02    0.367E-03
RMM:   2    -0.123406096636E+02   -0.10601E-04   -0.10216E-04    65   0.434E-02
    201 T=  1104. E= -.11701349E+02 F= -.12340610E+02 E0= -.12285005E+02  EK= 0.42814E+00 SP= 0.17E+00 SK= 0.37E-01
       N       E                     dE             d eps       ncg     rms          rms(c)
RMM:   1    -0.123671883659E+02   -0.26589E-01   -0.93287E-04    83   0.861E-02    0.380E-03
RMM:   2    -0.123671982323E+02   -0.98665E-05   -0.92709E-05    70   0.431E-02
    202 T=  1190. E= -.11701394E+02 F= -.12367198E+02 E0= -.12311208E+02  EK= 0.46138E+00 SP= 0.17E+00 SK= 0.36E-01
       N       E                     dE             d eps       ncg     rms          rms(c)
RMM:   1    -0.123865998190E+02   -0.19411E-01   -0.13562E-03    87   0.977E-02    0.494E-03
RMM:   2    -0.123866132842E+02   -0.13465E-04   -0.12926E-04    75   0.488E-02
    203 T=  1258. E= -.11701392E+02 F= -.12386613E+02 E0= -.12330060E+02  EK= 0.48778E+00 SP= 0.16E+00 SK= 0.34E-01
       N       E                     dE             d eps       ncg     rms          rms(c)
RMM:   1    -0.123983404052E+02   -0.11741E-01   -0.12465E-03    87   0.988E-02    0.388E-03
RMM:   2    -0.123983533270E+02   -0.12922E-04   -0.12383E-04    74   0.507E-02
    204 T=  1307. E= -.11701357E+02 F= -.12398353E+02 E0= -.12341106E+02  EK= 0.50668E+00 SP= 0.16E+00 SK= 0.32E-01
       N       E                     dE             d eps       ncg     rms          rms(c)
RMM:   1    -0.124024141576E+02   -0.40738E-02   -0.94683E-04    87   0.839E-02    0.449E-03
RMM:   2    -0.124024237097E+02   -0.95521E-05   -0.93761E-05    70   0.418E-02
    205 T=  1336. E= -.11701296E+02 F= -.12402424E+02 E0= -.12344409E+02  EK= 0.51791E+00 SP= 0.15E+00 SK= 0.30E-01
       N       E                     dE             d eps       ncg     rms          rms(c)
RMM:   1    -0.123992823937E+02    0.31318E-02   -0.74880E-04    87   0.917E-02    0.694E-03
RMM:   2    -0.123992912272E+02   -0.88335E-05   -0.87295E-05    69   0.462E-02
    206 T=  1346. E= -.11701213E+02 F= -.12399291E+02 E0= -.12340500E+02  EK= 0.52182E+00 SP= 0.15E+00 SK= 0.28E-01
[...]
    948 T=  1240. E= -.11696564E+02 F= -.12036945E+02 E0= -.12015548E+02  EK= 0.48084E+00 SP= -.18E+00 SK= 0.36E-01
       N       E                     dE             d eps       ncg     rms          rms(c)
RMM:   1    -0.120506835442E+02   -0.13753E-01   -0.15694E-03    86   0.111E-01    0.746E-03
RMM:   2    -0.120507014055E+02   -0.17861E-04   -0.17384E-04    72   0.559E-02
    949 T=  1294. E= -.11696698E+02 F= -.12050701E+02 E0= -.12029676E+02  EK= 0.50165E+00 SP= -.18E+00 SK= 0.34E-01
       N       E                     dE             d eps       ncg     rms          rms(c)
RMM:   1    -0.120693940814E+02   -0.18711E-01   -0.66971E-04    85   0.891E-02    0.730E-03
RMM:   2    -0.120694017939E+02   -0.77125E-05   -0.74883E-05    65   0.418E-02
    950 T=  1360. E= -.11696867E+02 F= -.12069402E+02 E0= -.12048648E+02  EK= 0.52749E+00 SP= -.19E+00 SK= 0.32E-01
       N       E                     dE             d eps       ncg     rms          rms(c)
RMM:   1    -0.120906256611E+02   -0.21232E-01   -0.68536E-04    82   0.863E-02    0.142E-02
RMM:   2    -0.120906329375E+02   -0.72764E-05   -0.67078E-05    67   0.392E-02
    951 T=  1434. E= -.11697020E+02 F= -.12090633E+02 E0= -.12070057E+02  EK= 0.55598E+00 SP= -.19E+00 SK= 0.29E-01
       N       E                     dE             d eps       ncg     rms          rms(c)
RMM:   1    -0.121117180402E+02   -0.21092E-01   -0.75367E-04    79   0.831E-02    0.807E-03
RMM:   2    -0.121117260402E+02   -0.80000E-05   -0.76665E-05    63   0.376E-02
    952 T=  1507. E= -.11697179E+02 F= -.12111726E+02 E0= -.12091232E+02  EK= 0.58436E+00 SP= -.20E+00 SK= 0.26E-01
       N       E                     dE             d eps       ncg     rms          rms(c)
RMM:   1    -0.121298689776E+02   -0.18151E-01   -0.32890E-04    81   0.770E-02    0.938E-03
RMM:   2    -0.121298709995E+02   -0.20219E-05   -0.35096E-05    64   0.318E-02
    953 T=  1572. E= -.11697373E+02 F= -.12129871E+02 E0= -.12109339E+02  EK= 0.60969E+00 SP= -.20E+00 SK= 0.23E-01
       N       E                     dE             d eps       ncg     rms          rms(c)
RMM:   1    -0.121422463749E+02   -0.12377E-01   -0.55997E-04    82   0.867E-02    0.603E-03
RMM:   2    -0.121422522573E+02   -0.58825E-05   -0.55814E-05    61   0.384E-02
    954 T=  1622. E= -.11697558E+02 F= -.12142252E+02 E0= -.12121558E+02  EK= 0.62906E+00 SP= -.20E+00 SK= 0.20E-01
       N       E                     dE             d eps       ncg     rms          rms(c)
RMM:   1    -0.121462232234E+02   -0.39768E-02   -0.62850E-04    78   0.822E-02    0.555E-03
RMM:   2    -0.121462301332E+02   -0.69098E-05   -0.62069E-05    65   0.366E-02
    955 T=  1650. E= -.11697693E+02 F= -.12146230E+02 E0= -.12125247E+02  EK= 0.63973E+00 SP= -.21E+00 SK= 0.17E-01
       N       E                     dE             d eps       ncg     rms          rms(c)
RMM:   1    -0.121395471720E+02    0.66761E-02   -0.76553E-04    77   0.847E-02    0.754E-03
RMM:   2    -0.121395556453E+02   -0.84732E-05   -0.79209E-05    65   0.378E-02
    956 T=  1649. E= -.11697782E+02 F= -.12139556E+02 E0= -.12118152E+02  EK= 0.63929E+00 SP= -.21E+00 SK= 0.15E-01
       N       E                     dE             d eps       ncg     rms          rms(c)
RMM:   1    -0.121205763115E+02    0.18971E-01   -0.11562E-03    77   0.941E-02    0.389E-03
RMM:   2    -0.121205883101E+02   -0.11999E-04   -0.11183E-04    63   0.449E-02
    957 T=  1614. E= -.11697820E+02 F= -.12120588E+02 E0= -.12098637E+02  EK= 0.62600E+00 SP= -.22E+00 SK= 0.12E-01
       N       E                     dE             d eps       ncg     rms          rms(c)
RMM:   1    -0.120884867851E+02    0.32090E-01   -0.87775E-04    83   0.925E-02    0.671E-03
RMM:   2    -0.120884959550E+02   -0.91699E-05   -0.81621E-05    65   0.437E-02
    958 T=  1545. E= -.11697799E+02 F= -.12088496E+02 E0= -.12065885E+02  EK= 0.59895E+00 SP= -.22E+00 SK= 0.10E-01
       N       E                     dE             d eps       ncg     rms          rms(c)
RMM:   1    -0.120434222182E+02    0.45065E-01   -0.81391E-04    78   0.882E-02    0.353E-03
RMM:   2    -0.120434318012E+02   -0.95830E-05   -0.94128E-05    63   0.435E-02
    959 T=  1440. E= -.11697704E+02 F= -.12043432E+02 E0= -.12020077E+02  EK= 0.55830E+00 SP= -.22E+00 SK= 0.83E-02
       N       E                     dE             d eps       ncg     rms          rms(c)
RMM:   1    -0.119867122561E+02    0.56710E-01   -0.59055E-04    78   0.852E-02    0.415E-03
RMM:   2    -0.119867182563E+02   -0.60001E-05   -0.59844E-05    65   0.381E-02
    960 T=  1303. E= -.11697535E+02 F= -.11986718E+02 E0= -.11962572E+02  EK= 0.50540E+00 SP= -.22E+00 SK= 0.71E-02
       N       E                     dE             d eps       ncg     rms          rms(c)
RMM:   1    -0.119209363721E+02    0.65776E-01   -0.97931E-04    81   0.103E-01    0.394E-03
RMM:   2    -0.119209462626E+02   -0.98905E-05   -0.10152E-04    67   0.489E-02
    961 T=  1142. E= -.11697286E+02 F= -.11920946E+02 E0= -.11896010E+02  EK= 0.44291E+00 SP= -.23E+00 SK= 0.64E-02
       N       E                     dE             d eps       ncg     rms          rms(c)
RMM:   1    -0.118499322651E+02    0.71004E-01   -0.88474E-04    88   0.101E-01    0.608E-03
RMM:   2    -0.118499409790E+02   -0.87139E-05   -0.88880E-05    71   0.471E-02
    962 T=   966. E= -.11696965E+02 F= -.11849941E+02 E0= -.11824267E+02  EK= 0.37473E+00 SP= -.23E+00 SK= 0.60E-02
       N       E                     dE             d eps       ncg     rms          rms(c)
RMM:   1    -0.117784938848E+02    0.71438E-01   -0.10392E-03    87   0.111E-01    0.119E-02
RMM:   2    -0.117785045055E+02   -0.10621E-04   -0.10626E-04    71   0.528E-02
    963 T=   788. E= -.11696607E+02 F= -.11778505E+02 E0= -.11752192E+02  EK= 0.30571E+00 SP= -.23E+00 SK= 0.61E-02
       N       E                     dE             d eps       ncg     rms          rms(c)
RMM:   1    -0.117119809206E+02    0.66513E-01   -0.12263E-03    87   0.115E-01    0.826E-03
RMM:   2    -0.117119935435E+02   -0.12623E-04   -0.12919E-04    69   0.565E-02
    964 T=   622. E= -.11696264E+02 F= -.11711994E+02 E0= -.11685187E+02  EK= 0.24124E+00 SP= -.23E+00 SK= 0.67E-02
       N       E                     dE             d eps       ncg     rms          rms(c)
RMM:   1    -0.116557286009E+02    0.56252E-01   -0.69972E-04    90   0.102E-01    0.705E-03
RMM:   2    -0.116557354194E+02   -0.68185E-05   -0.77422E-05    64   0.473E-02
    965 T=   481. E= -.11695974E+02 F= -.11655735E+02 E0= -.11628628E+02  EK= 0.18667E+00 SP= -.23E+00 SK= 0.76E-02
       N       E                     dE             d eps       ncg     rms          rms(c)
RMM:   1    -0.116143697148E+02    0.41359E-01   -0.53956E-04    89   0.918E-02    0.855E-03
RMM:   2    -0.116143752819E+02   -0.55671E-05   -0.58817E-05    65   0.434E-02
    966 T=   378. E= -.11695767E+02 F= -.11614375E+02 E0= -.11587176E+02  EK= 0.14670E+00 SP= -.24E+00 SK= 0.89E-02
       N       E                     dE             d eps       ncg     rms          rms(c)
RMM:   1    -0.115912907220E+02    0.23079E-01   -0.34669E-04    79   0.748E-02    0.509E-03
RMM:   2    -0.115912945214E+02   -0.37995E-05   -0.39005E-05    64   0.341E-02
    967 T=   322. E= -.11695664E+02 F= -.11591295E+02 E0= -.11564224E+02  EK= 0.12476E+00 SP= -.24E+00 SK= 0.11E-01
       N       E                     dE             d eps       ncg     rms          rms(c)
RMM:   1    -0.115881767937E+02    0.31139E-02   -0.36116E-04    81   0.706E-02    0.450E-03
RMM:   2    -0.115881805714E+02   -0.37777E-05   -0.36772E-05    63   0.336E-02
    968 T=   316. E= -.11695678E+02 F= -.11588181E+02 E0= -.11561468E+02  EK= 0.12268E+00 SP= -.24E+00 SK= 0.13E-01
       N       E                     dE             d eps       ncg     rms          rms(c)
RMM:   1    -0.116048530688E+02   -0.16676E-01   -0.37887E-04    79   0.688E-02    0.476E-03
RMM:   2    -0.116048570749E+02   -0.40062E-05   -0.39880E-05    62   0.327E-02
    969 T=   362. E= -.11695806E+02 F= -.11604857E+02 E0= -.11578739E+02  EK= 0.14044E+00 SP= -.25E+00 SK= 0.15E-01
       N       E                     dE             d eps       ncg     rms          rms(c)
RMM:   1    -0.116393706200E+02   -0.34518E-01   -0.27882E-04    74   0.612E-02    0.404E-03
RMM:   2    -0.116393740661E+02   -0.34461E-05   -0.31385E-05    62   0.289E-02
    970 T=   455. E= -.11696028E+02 F= -.11639374E+02 E0= -.11614060E+02  EK= 0.17630E+00 SP= -.25E+00 SK= 0.17E-01
       N       E                     dE             d eps       ncg     rms          rms(c)
RMM:   1    -0.116883074644E+02   -0.48937E-01   -0.27576E-04    78   0.653E-02    0.647E-03
RMM:   2    -0.116883106443E+02   -0.31799E-05   -0.29899E-05    62   0.298E-02
    971 T=   586. E= -.11696312E+02 F= -.11688311E+02 E0= -.11663967E+02  EK= 0.22705E+00 SP= -.25E+00 SK= 0.18E-01
       N       E                     dE             d eps       ncg     rms          rms(c)
RMM:   1    -0.117471951839E+02   -0.58888E-01   -0.67541E-04    80   0.793E-02    0.577E-03
RMM:   2    -0.117472022116E+02   -0.70277E-05   -0.65352E-05    67   0.368E-02
    972 T=   744. E= -.11696625E+02 F= -.11747202E+02 E0= -.11723953E+02  EK= 0.28841E+00 SP= -.26E+00 SK= 0.19E-01
       N       E                     dE             d eps       ncg     rms          rms(c)
RMM:   1    -0.118109843760E+02   -0.63789E-01   -0.10478E-03    78   0.862E-02    0.736E-03
RMM:   2    -0.118109952578E+02   -0.10882E-04   -0.10005E-04    65   0.406E-02
    973 T=   917. E= -.11696947E+02 F= -.11810995E+02 E0= -.11788891E+02  EK= 0.35542E+00 SP= -.26E+00 SK= 0.20E-01
       N       E                     dE             d eps       ncg     rms          rms(c)
RMM:   1    -0.118744543259E+02   -0.63470E-01   -0.14566E-03    82   0.991E-02    0.635E-03
RMM:   2    -0.118744692106E+02   -0.14885E-04   -0.14294E-04    68   0.484E-02
    974 T=  1090. E= -.11697266E+02 F= -.11874469E+02 E0= -.11853467E+02  EK= 0.42285E+00 SP= -.26E+00 SK= 0.19E-01
       N       E                     dE             d eps       ncg     rms          rms(c)
RMM:   1    -0.119326018928E+02   -0.58148E-01   -0.94801E-04    82   0.954E-02    0.746E-03
RMM:   2    -0.119326129161E+02   -0.11023E-04   -0.10432E-04    70   0.458E-02
    975 T=  1252. E= -.11697562E+02 F= -.11932613E+02 E0= -.11912605E+02  EK= 0.48560E+00 SP= -.27E+00 SK= 0.18E-01
       N       E                     dE             d eps       ncg     rms          rms(c)
RMM:   1    -0.119809346596E+02   -0.48333E-01   -0.82054E-04    84   0.913E-02    0.824E-03
RMM:   2    -0.119809434116E+02   -0.87520E-05   -0.82454E-05    69   0.432E-02
    976 T=  1390. E= -.11697788E+02 F= -.11980943E+02 E0= -.11961756E+02  EK= 0.53902E+00 SP= -.27E+00 SK= 0.17E-01
       N       E                     dE             d eps       ncg     rms          rms(c)
RMM:   1    -0.120158081745E+02   -0.34874E-01   -0.73427E-04    87   0.895E-02    0.836E-03
RMM:   2    -0.120158160240E+02   -0.78495E-05   -0.72925E-05    70   0.429E-02
    977 T=  1494. E= -.11697921E+02 F= -.12015816E+02 E0= -.11997220E+02  EK= 0.57926E+00 SP= -.28E+00 SK= 0.15E-01
       N       E                     dE             d eps       ncg     rms          rms(c)
RMM:   1    -0.120347066703E+02   -0.18898E-01   -0.48011E-04    85   0.795E-02    0.621E-03
RMM:   2    -0.120347121691E+02   -0.54989E-05   -0.49363E-05    64   0.370E-02
    978 T=  1556. E= -.11697967E+02 F= -.12034712E+02 E0= -.12016431E+02  EK= 0.60352E+00 SP= -.28E+00 SK= 0.13E-01
       N       E                     dE             d eps       ncg     rms          rms(c)
RMM:   1    -0.120364993393E+02   -0.17927E-02   -0.31196E-04    83   0.724E-02    0.600E-03
RMM:   2    -0.120365029787E+02   -0.36394E-05   -0.35315E-05    67   0.328E-02
    979 T=  1574. E= -.11697924E+02 F= -.12036503E+02 E0= -.12018245E+02  EK= 0.61045E+00 SP= -.28E+00 SK= 0.10E-01
       N       E                     dE             d eps       ncg     rms          rms(c)
RMM:   1    -0.120216134964E+02    0.14886E-01   -0.49796E-04    86   0.768E-02    0.588E-03
RMM:   2    -0.120216185123E+02   -0.50159E-05   -0.48123E-05    65   0.360E-02
    980 T=  1548. E= -.11697782E+02 F= -.12021619E+02 E0= -.12003087E+02  EK= 0.60032E+00 SP= -.29E+00 SK= 0.86E-02
       N       E                     dE             d eps       ncg     rms          rms(c)
RMM:   1    -0.119920456813E+02    0.29568E-01   -0.99746E-04    87   0.100E-01    0.501E-03
RMM:   2    -0.119920546506E+02   -0.89693E-05   -0.91583E-05    66   0.476E-02
    981 T=  1483. E= -.11697541E+02 F= -.11992055E+02 E0= -.11972953E+02  EK= 0.57504E+00 SP= -.29E+00 SK= 0.70E-02
       N       E                     dE             d eps       ncg     rms          rms(c)
RMM:   1    -0.119511743547E+02    0.40871E-01   -0.16462E-03    92   0.122E-01    0.708E-03
RMM:   2    -0.119511899320E+02   -0.15577E-04   -0.15471E-04    72   0.606E-02
    982 T=  1387. E= -.11697214E+02 F= -.11951190E+02 E0= -.11931251E+02  EK= 0.53796E+00 SP= -.29E+00 SK= 0.57E-02
       N       E                     dE             d eps       ncg     rms          rms(c)
RMM:   1    -0.119034038436E+02    0.47771E-01   -0.37962E-03    94   0.161E-01    0.472E-03
RMM:   2    -0.119034407173E+02   -0.36874E-04   -0.36342E-04    75   0.827E-02
    983 T=  1273. E= -.11696843E+02 F= -.11903441E+02 E0= -.11882439E+02  EK= 0.49350E+00 SP= -.29E+00 SK= 0.48E-02
       N       E                     dE             d eps       ncg     rms          rms(c)
RMM:   1    -0.118537718532E+02    0.49632E-01   -0.16315E-03    95   0.141E-01    0.103E-02
RMM:   2    -0.118537897523E+02   -0.17899E-04   -0.19074E-04    72   0.693E-02
    984 T=  1152. E= -.11696489E+02 F= -.11853790E+02 E0= -.11831544E+02  EK= 0.44667E+00 SP= -.29E+00 SK= 0.42E-02
       N       E                     dE             d eps       ncg     rms          rms(c)
RMM:   1    -0.118071246229E+02    0.46647E-01   -0.41470E-03    94   0.174E-01    0.112E-02
RMM:   2    -0.118071671279E+02   -0.42505E-04   -0.41615E-04    78   0.914E-02
    985 T=  1038. E= -.11696196E+02 F= -.11807167E+02 E0= -.11783553E+02  EK= 0.40244E+00 SP= -.30E+00 SK= 0.39E-02
       N       E                     dE             d eps       ncg     rms          rms(c)
RMM:   1    -0.117678945885E+02    0.39230E-01   -0.23831E-03    95   0.162E-01    0.146E-02
RMM:   2    -0.117679214137E+02   -0.26825E-04   -0.27457E-04    73   0.789E-02
    986 T=   942. E= -.11696015E+02 F= -.11767921E+02 E0= -.11742869E+02  EK= 0.36523E+00 SP= -.30E+00 SK= 0.37E-02
       N       E                     dE             d eps       ncg     rms          rms(c)
RMM:   1    -0.117392799837E+02    0.28615E-01   -0.94308E-04    91   0.112E-01    0.101E-02
RMM:   2    -0.117392902894E+02   -0.10306E-04   -0.11179E-04    69   0.531E-02
    987 T=   873. E= -.11695918E+02 F= -.11739290E+02 E0= -.11712804E+02  EK= 0.33838E+00 SP= -.30E+00 SK= 0.38E-02
       N       E                     dE             d eps       ncg     rms          rms(c)
RMM:   1    -0.117231343595E+02    0.16146E-01   -0.13327E-03    94   0.125E-01    0.992E-03
RMM:   2    -0.117231508092E+02   -0.16450E-04   -0.16158E-04    71   0.631E-02
    988 T=   835. E= -.11695871E+02 F= -.11723151E+02 E0= -.11695264E+02  EK= 0.32389E+00 SP= -.30E+00 SK= 0.39E-02
       N       E                     dE             d eps       ncg     rms          rms(c)
RMM:   1    -0.117200225295E+02    0.31118E-02   -0.55332E-04    84   0.892E-02    0.728E-03
RMM:   2    -0.117200292153E+02   -0.66858E-05   -0.65721E-05    64   0.430E-02
    989 T=   831. E= -.11695893E+02 F= -.11720029E+02 E0= -.11690830E+02  EK= 0.32234E+00 SP= -.30E+00 SK= 0.41E-02
       N       E                     dE             d eps       ncg     rms          rms(c)
RMM:   1    -0.117292474580E+02   -0.92249E-02   -0.68267E-04    83   0.877E-02    0.686E-03
RMM:   2    -0.117292554312E+02   -0.79732E-05   -0.76483E-05    66   0.419E-02
    990 T=   859. E= -.11695977E+02 F= -.11729255E+02 E0= -.11698855E+02  EK= 0.33314E+00 SP= -.30E+00 SK= 0.42E-02
       N       E                     dE             d eps       ncg     rms          rms(c)
RMM:   1    -0.117492597434E+02   -0.20012E-01   -0.74143E-04    79   0.824E-02    0.136E-02
RMM:   2    -0.117492670188E+02   -0.72753E-05   -0.74555E-05    65   0.388E-02
    991 T=   915. E= -.11696103E+02 F= -.11749267E+02 E0= -.11717785E+02  EK= 0.35478E+00 SP= -.31E+00 SK= 0.43E-02
       N       E                     dE             d eps       ncg     rms          rms(c)
RMM:   1    -0.117778590631E+02   -0.28599E-01   -0.36399E-04    83   0.741E-02    0.860E-03
RMM:   2    -0.117778628728E+02   -0.38098E-05   -0.37150E-05    64   0.326E-02
    992 T=   993. E= -.11696256E+02 F= -.11777863E+02 E0= -.11745429E+02  EK= 0.38512E+00 SP= -.31E+00 SK= 0.42E-02
       N       E                     dE             d eps       ncg     rms          rms(c)
RMM:   1    -0.118124133574E+02   -0.34554E-01   -0.80582E-04    85   0.930E-02    0.918E-03
RMM:   2    -0.118124225130E+02   -0.91557E-05   -0.86144E-05    69   0.447E-02
    993 T=  1087. E= -.11696424E+02 F= -.11812423E+02 E0= -.11779143E+02  EK= 0.42154E+00 SP= -.31E+00 SK= 0.40E-02
       N       E                     dE             d eps       ncg     rms          rms(c)
RMM:   1    -0.118500800935E+02   -0.37667E-01   -0.97365E-04    81   0.936E-02    0.648E-03
RMM:   2    -0.118500915747E+02   -0.11481E-04   -0.10623E-04    67   0.438E-02
    994 T=  1189. E= -.11696603E+02 F= -.11850092E+02 E0= -.11816068E+02  EK= 0.46117E+00 SP= -.31E+00 SK= 0.36E-02
       N       E                     dE             d eps       ncg     rms          rms(c)
RMM:   1    -0.118879379034E+02   -0.37858E-01   -0.30839E-04    81   0.816E-02    0.100E-02
RMM:   2    -0.118879417878E+02   -0.38843E-05   -0.37432E-05    61   0.344E-02
    995 T=  1292. E= -.11696780E+02 F= -.11887942E+02 E0= -.11853262E+02  EK= 0.50101E+00 SP= -.31E+00 SK= 0.30E-02
       N       E                     dE             d eps       ncg     rms          rms(c)
RMM:   1    -0.119231548662E+02   -0.35217E-01   -0.77265E-04    81   0.955E-02    0.781E-03
RMM:   2    -0.119231645350E+02   -0.96688E-05   -0.91966E-05    68   0.445E-02
    996 T=  1388. E= -.11696928E+02 F= -.11923165E+02 E0= -.11887885E+02  EK= 0.53820E+00 SP= -.31E+00 SK= 0.24E-02
       N       E                     dE             d eps       ncg     rms          rms(c)
RMM:   1    -0.119533180644E+02   -0.30163E-01   -0.36253E-04    78   0.854E-02    0.795E-03
RMM:   2    -0.119533226991E+02   -0.46347E-05   -0.46596E-05    62   0.352E-02
    997 T=  1470. E= -.11697039E+02 F= -.11953323E+02 E0= -.11917491E+02  EK= 0.57019E+00 SP= -.32E+00 SK= 0.17E-02
       N       E                     dE             d eps       ncg     rms          rms(c)
RMM:   1    -0.119765903111E+02   -0.23272E-01   -0.31402E-04    81   0.809E-02    0.808E-03
RMM:   2    -0.119765934865E+02   -0.31753E-05   -0.32209E-05    63   0.321E-02
    998 T=  1535. E= -.11697086E+02 F= -.11976593E+02 E0= -.11940250E+02  EK= 0.59508E+00 SP= -.32E+00 SK= 0.10E-02
       N       E                     dE             d eps       ncg     rms          rms(c)
RMM:   1    -0.119920315467E+02   -0.15441E-01   -0.42535E-04    80   0.847E-02    0.635E-03
RMM:   2    -0.119920361990E+02   -0.46523E-05   -0.48408E-05    63   0.362E-02
    999 T=  1578. E= -.11697058E+02 F= -.11992036E+02 E0= -.11955188E+02  EK= 0.61184E+00 SP= -.32E+00 SK= 0.49E-03
       N       E                     dE             d eps       ncg     rms          rms(c)
RMM:   1    -0.119997939954E+02   -0.77624E-02   -0.35918E-04    83   0.786E-02    0.433E-03
RMM:   2    -0.119997978920E+02   -0.38966E-05   -0.39468E-05    62   0.333E-02
   1000 T=  1600. E= -.11696956E+02 F= -.11999798E+02 E0= -.11962433E+02  EK= 0.62053E+00 SP= -.32E+00 SK= 0.15E-03
