Al, 4 atoms                             
           1
     7.091058    0.000000    0.000000
     0.000000    3.545529    0.000000
     0.000000    0.000000    3.545529
   Al
     4
Direct configuration=     5
   0.93602186  0.99155762  0.94883831
   0.60860206  0.87769989  0.00364718
   0.16384233  0.67208336  0.54976095
   0.79153375  0.45865914  0.49775356
Direct configuration=    10
   0.94503852  0.97072711  0.96959672
   0.60366144  0.87835681  0.99383661
   0.15633234  0.67500576  0.54214315
   0.79496770  0.47591033  0.49442352
Direct configuration=    15
   0.95540948  0.95884578  0.00182889
   0.59272373  0.88114691  0.98547424
   0.15469636  0.67139090  0.52570342
   0.79717042  0.48861642  0.48699344
Direct configuration=    20
   0.96341103  0.95787549  0.03628583
   0.57975522  0.88579682  0.97740221
   0.15919451  0.66124831  0.50578574
   0.79763924  0.49507938  0.48052621
Direct configuration=    25
   0.96717310  0.96901424  0.06011613
   0.56736671  0.89152012  0.96872349
   0.16915323  0.64396959  0.49151823
   0.79630696  0.49549606  0.47964215
Direct configuration=    30
   0.96666235  0.99081605  0.06803158
   0.55665228  0.89778348  0.95941896
   0.18266876  0.61980268  0.48643629
   0.79401661  0.49159780  0.48611317
Direct configuration=    35
   0.96353900  0.01725458  0.06307577
   0.54802054  0.90453265  0.95027523
   0.19651764  0.59178120  0.48755829
   0.79192281  0.48643157  0.49909070
Direct configuration=    40
   0.95938510  0.04182608  0.04996201
   0.54171398  0.91207736  0.94232069
   0.20820183  0.56308109  0.49121992
   0.79069908  0.48301548  0.51649737
Direct configuration=    45
   0.95500487  0.06040505  0.03296787
   0.53790297  0.92078502  0.93630653
   0.21672116  0.53532523  0.49548539
   0.79037101  0.48348470  0.53524022
Direct configuration=    50
   0.95091085  0.07060577  0.01674201
   0.53659718  0.93089913  0.93262023
   0.22199277  0.50910309  0.49962237
   0.79049919  0.48939201  0.55101538
Direct configuration=    55
   0.94755507  0.07103871  0.00574883
   0.53766377  0.94257056  0.93144681
   0.22426820  0.48456099  0.50342716
   0.79051296  0.50182975  0.55937719
Direct configuration=    60
   0.94492978  0.06214853  0.00227685
   0.54091792  0.95595672  0.93292812
   0.22384779  0.46167470  0.50693501
   0.79030450  0.52022005  0.55786001
Direct configuration=    65
   0.94244441  0.04703035  0.00577211
   0.54617908  0.97129519  0.93714830
   0.22099349  0.44039307  0.51025590
   0.79038302  0.54128139  0.54682369
Direct configuration=    70
   0.93966471  0.03028601  0.01417416
   0.55322939  0.98878166  0.94391925
   0.21595109  0.42066242  0.51346809
   0.79115481  0.56026991  0.52843849
Direct configuration=    75
   0.93704772  0.01638070  0.02450107
   0.56167921  0.00832945  0.95259099
   0.20899453  0.40244008  0.51660309
   0.79227855  0.57284977  0.50630484
Direct configuration=    80
   0.93604281  0.00897618  0.03238452
   0.57079666  0.02956117  0.96210884
   0.20047936  0.38567925  0.51971997
   0.79268117  0.57578340  0.48578667
Direct configuration=    85
   0.93834063  0.00995888  0.03346826
   0.57955952  0.05198542  0.97137357
   0.19086311  0.37038937  0.52297768
   0.79123674  0.56766633  0.47218049
Direct configuration=    90
   0.94445861  0.01756843  0.02645302
   0.58707493  0.07495069  0.97958527
   0.18068322  0.35679921  0.52654160
   0.78778324  0.55068168  0.46742011
Direct configuration=    95
   0.95304986  0.02681443  0.01360547
   0.59286127  0.09726000  0.98633790
   0.17076271  0.34558129  0.53015287
   0.78332616  0.53034429  0.46990376
Direct configuration=   100
   0.96144307  0.03225342  0.99924766
   0.59665928  0.11698145  0.99150702
   0.16251185  0.33834071  0.53214538
   0.77938581  0.51242442  0.47709993
Direct configuration=   105
   0.96672180  0.02958310  0.98871634
   0.59805780  0.13189665  0.99529235
   0.15773269  0.33759390  0.52920988
   0.77748770  0.50092635  0.48678142
Direct configuration=   110
   0.96736206  0.01681074  0.98552130
   0.59660229  0.14043201  0.99843448
   0.15731782  0.34506214  0.51912333
   0.77871784  0.49769511  0.49692089
Direct configuration=   115
   0.96416292  0.99550442  0.98862672
   0.59226582  0.14242689  0.00190729
   0.16030915  0.35979091  0.50360533
   0.78326212  0.50227778  0.50586065
Direct configuration=   120
   0.95916165  0.96990882  0.99490183
   0.58572612  0.13904071  0.00615396
   0.16489784  0.37917013  0.48615101
   0.79021439  0.51188034  0.51279319
Direct configuration=   125
   0.95434442  0.94548499  0.00255703
   0.57812872  0.13191322  0.01094287
   0.16977741  0.40085960  0.46885191
   0.79774945  0.52174219  0.51764819
Direct configuration=   130
   0.95133288  0.92809158  0.01117877
   0.57055760  0.12237186  0.01584641
   0.17444507  0.42328588  0.45227034
   0.80366446  0.52625069  0.52070448
Direct configuration=   135
   0.95104044  0.92237363  0.02010037
   0.56374319  0.11122603  0.02058613
   0.17886062  0.44537720  0.43649147
   0.80635574  0.52102315  0.52282203
Direct configuration=   140
   0.95308689  0.92966520  0.02772129
   0.55815579  0.09882073  0.02509900
   0.18303460  0.46641037  0.42179564
   0.80572272  0.50510370  0.52538407
Direct configuration=   145
   0.95592210  0.94740099  0.03247729
   0.55412911  0.08517488  0.02950593
   0.18683781  0.48593181  0.40873200
   0.80311099  0.48149233  0.52928478
Direct configuration=   150
   0.95789334  0.97039055  0.03365535
   0.55188948  0.07015812  0.03401006
   0.19002575  0.50383799  0.39793395
   0.80019144  0.45561335  0.53440064
Direct configuration=   155
   0.95827441  0.99285728  0.03143278
   0.55156074  0.05346790  0.03879398
   0.19234152  0.52045703  0.38982095
   0.79782333  0.43321779  0.53995230
Direct configuration=   160
   0.95741821  0.00993438  0.02689747
   0.55318819  0.03463049  0.04397937
   0.19360949  0.53630088  0.38445137
   0.79578411  0.41913426  0.54467178
Direct configuration=   165
   0.95615609  0.01858681  0.02183179
   0.55681398  0.01315891  0.04964349
   0.19377468  0.55163416  0.38162198
   0.79325525  0.41662013  0.54690273
Direct configuration=   170
   0.95496189  0.01821256  0.01769344
   0.56254237  0.98886278  0.05580641
   0.19289390  0.56616356  0.38113252
   0.78960184  0.42676110  0.54536763
Direct configuration=   175
   0.95351949  0.01094343  0.01452182
   0.57044575  0.96216037  0.06233781
   0.19111962  0.57900546  0.38305898
   0.78491513  0.44789073  0.54008138
Direct configuration=   180
   0.95117140  0.00091760  0.01105290
   0.58019006  0.93439165  0.06872521
   0.18866073  0.58905937  0.38785563
   0.77997781  0.47563138  0.53236625
Direct configuration=   185
   0.94793431  0.99258471  0.00566819
   0.59032277  0.90805453  0.07350770
   0.18567313  0.59571288  0.39617463
   0.77606979  0.50364789  0.52464948
Direct configuration=   190
   0.94514254  0.98929540  0.99723201
   0.59772009  0.88682246  0.07367047
   0.18210160  0.59931706  0.40847439
   0.77503577  0.52456509  0.52062312
Direct configuration=   195
   0.94479304  0.99289915  0.98590758
   0.59885003  0.87400197  0.06603067
   0.17766392  0.60082632  0.42471901
   0.77869301  0.53227256  0.52334274
Direct configuration=   200
   0.94796111  0.00358605  0.97390025
   0.59284003  0.86959198  0.05111307
   0.17213866  0.60104951  0.44422854
   0.78706021  0.52577246  0.53075814
Direct configuration=   205
   0.95421018  0.01948875  0.96513135
   0.58208752  0.87076662  0.03293673
   0.16584280  0.60017111  0.46558194
   0.79785950  0.50957352  0.53634997
Direct configuration=   210
   0.96260362  0.03658110  0.96376612
   0.56964658  0.87487548  0.01455252
   0.16003421  0.59786975  0.48694993
   0.80771560  0.49067367  0.53473142
Direct configuration=   215
   0.97256946  0.05033511  0.97253495
   0.55740243  0.88049631  0.99677421
   0.15673007  0.59392720  0.50679117
   0.81329804  0.47524138  0.52389966
Direct configuration=   220
   0.98356006  0.05843313  0.99075632
   0.54609085  0.88700176  0.97942231
   0.15752812  0.58850909  0.52439117
   0.81282097  0.46605602  0.50543019
Direct configuration=   225
   0.99480820  0.06098229  0.01405630
   0.53585461  0.89411919  0.96223956
   0.16215861  0.58178116  0.53982488
   0.80717857  0.46311736  0.48387926
Direct configuration=   230
   0.00580478  0.05867074  0.03746751
   0.52657814  0.90169102  0.94509199
   0.16871693  0.57369076  0.55351115
   0.79890015  0.46594748  0.46392934
Direct configuration=   235
   0.01639722  0.05235743  0.05818352
   0.51795939  0.90958558  0.92804123
   0.17523566  0.56413105  0.56587593
   0.79040773  0.47392595  0.44789932
Direct configuration=   240
   0.02648996  0.04349716  0.07555064
   0.50953059  0.91772342  0.91138470
   0.18057974  0.55297399  0.57723861
   0.78339971  0.48580544  0.43582604
Direct configuration=   245
   0.03605840  0.03379981  0.08978279
   0.50074465  0.92613536  0.89561577
   0.18433683  0.54004005  0.58773229
   0.77886012  0.50002478  0.42686915
Direct configuration=   250
   0.04528134  0.02453448  0.10111292
   0.49106609  0.93497317  0.88128798
   0.18644756  0.52514808  0.59732296
   0.77720501  0.51534428  0.42027614
Direct configuration=   255
   0.05450495  0.01613258  0.10961557
   0.48002872  0.94444872  0.86882242
   0.18702303  0.50834891  0.60588695
   0.77844330  0.53106979  0.41567506
Direct configuration=   260
   0.06403681  0.00804511  0.11534163
   0.46733150  0.95470020  0.85842474
   0.18632590  0.49030126  0.61322814
   0.78230579  0.54695343  0.41300549
Direct configuration=   265
   0.07386073  0.99883725  0.11854548
   0.45306579  0.96562059  0.85007669
   0.18476073  0.47252469  0.61900553
   0.78831275  0.56301748  0.41237230
Direct configuration=   270
   0.08336975  0.98671306  0.11994269
   0.43811607  0.97654125  0.84354837
   0.18270400  0.45740396  0.62261320
   0.79581019  0.57934174  0.41389573
Direct configuration=   275
   0.09122961  0.97067410  0.12078571
   0.42460936  0.98588268  0.83830436
   0.18016054  0.44748123  0.62323093
   0.80400050  0.59596199  0.41767900
Direct configuration=   280
   0.09571706  0.95175503  0.12225994
   0.41565151  0.99148116  0.83340775
   0.17669725  0.44405858  0.62037960
   0.81193417  0.61270523  0.42395270
Direct configuration=   285
   0.09586451  0.93348102  0.12395738
   0.41357286  0.99202442  0.82771893
   0.17221422  0.44529305  0.61492217
   0.81834841  0.62920151  0.43340151
Direct configuration=   290
   0.09254360  0.92107938  0.12278634
   0.41822890  0.98783277  0.82044831
   0.16775866  0.44608644  0.60929649
   0.82146884  0.64500141  0.44746886
Direct configuration=   295
   0.08769101  0.91849019  0.11499992
   0.42765289  0.97991194  0.81137807
   0.16495297  0.44148689  0.60571254
   0.81970313  0.66011098  0.46790946
Direct configuration=   300
   0.08245603  0.92495308  0.10031558
   0.43967524  0.96907305  0.80060534
   0.16466080  0.43062208  0.60375385
   0.81320793  0.67535179  0.49532522
Direct configuration=   305
   0.07672762  0.93511988  0.08295692
   0.45228071  0.95615262  0.78847462
   0.16667064  0.41720502  0.60052006
   0.80432103  0.69152248  0.52804840
Direct configuration=   310
   0.06998414  0.94258837  0.06873634
   0.46313249  0.94267437  0.77568436
   0.17049015  0.40672196  0.59289813
   0.79639322  0.70801531  0.56268117
Direct configuration=   315
   0.06212132  0.94363849  0.06164371
   0.46927314  0.93106328  0.76324459
   0.17577572  0.40274388  0.57970692
   0.79282982  0.72255435  0.59540477
Direct configuration=   320
   0.05409021  0.93880713  0.06257659
   0.46787457  0.92357232  0.75173171
   0.18199870  0.40502312  0.56261968
   0.79603653  0.73259743  0.62307202
Direct configuration=   325
   0.04822067  0.93141576  0.07106603
   0.45844254  0.92065536  0.74044950
   0.18823832  0.41088444  0.54504736
   0.80509847  0.73704445  0.64343710
Direct configuration=   330
   0.04750123  0.92530532  0.08669562
   0.44347308  0.92104810  0.72849408
   0.19331941  0.41748958  0.53048825
   0.81570627  0.73615700  0.65432205
Direct configuration=   335
   0.05336344  0.92311663  0.10673314
   0.42665664  0.92325604  0.71653779
   0.19602207  0.42272682  0.52179048
   0.82395784  0.73090051  0.65493860
Direct configuration=   340
   0.06400494  0.92526706  0.12370928
   0.41180049  0.92632560  0.70667440
   0.19534733  0.42530293  0.52142000
   0.82884724  0.72310441  0.64819632
Direct configuration=   345
   0.07580392  0.93025795  0.12904616
   0.40240703  0.92952059  0.70075851
   0.19067744  0.42538271  0.53179543
   0.83111161  0.71483875  0.63839990
Direct configuration=   350
   0.08576786  0.93545611  0.11892219
   0.40097530  0.93192375  0.69881054
   0.18165886  0.42483945  0.55437906
   0.83159798  0.70778069  0.62788821
Direct configuration=   355
   0.09259847  0.93853203  0.09757971
   0.40792425  0.93303380  0.69861495
   0.16881135  0.42510555  0.58678480
   0.83066593  0.70332863  0.61702054
Direct configuration=   360
   0.09625891  0.93841576  0.07719122
   0.42089923  0.93339747  0.69743740
   0.15495122  0.42558276  0.61997370
   0.82789064  0.70260402  0.60539767
Direct configuration=   365
   0.09718786  0.93460136  0.07214271
   0.43604328  0.93419937  0.69428577
   0.14432427  0.42510497  0.64110854
   0.82244459  0.70609430  0.59246298
Direct configuration=   370
   0.09607543  0.92744521  0.08931170
   0.45000510  0.93665620  0.68984143
   0.13937078  0.42254354  0.64283016
   0.81454869  0.71335506  0.57801670
Direct configuration=   375
   0.09368098  0.91848577  0.12244679
   0.46033058  0.94178732  0.68527475
   0.13979462  0.41680354  0.62958848
   0.80619382  0.72292337  0.56268998
Direct configuration=   380
   0.09060118  0.90912941  0.15571193
   0.46500817  0.95038360  0.68173460
   0.14432864  0.40793973  0.61478230
   0.80006201  0.73254726  0.54777117
Direct configuration=   385
   0.08727370  0.90009924  0.17331678
   0.46282563  0.96258085  0.67996574
   0.15224410  0.39719696  0.61180261
   0.79765656  0.74012296  0.53491486
Direct configuration=   390
   0.08440638  0.89148078  0.16856398
   0.45435906  0.97692821  0.67992294
   0.16288120  0.38674271  0.62547013
   0.79835335  0.74484831  0.52604295
Direct configuration=   395
   0.08310515  0.88326477  0.14643716
   0.44266997  0.98914239  0.68097134
   0.17373112  0.38019488  0.64977890
   0.80049376  0.74739796  0.52281260
Direct configuration=   400
   0.08365445  0.87604933  0.11913571
   0.43315299  0.99170363  0.68235626
   0.18010360  0.38308638  0.67289258
   0.80308896  0.74916067  0.52561545
Direct configuration=   405
   0.08459547  0.87222239  0.09956739
   0.42998408  0.97892974  0.68316139
   0.17927035  0.39752201  0.68380566
   0.80615010  0.75132586  0.53346555
Direct configuration=   410
   0.08398706  0.87698630  0.09671711
   0.43203103  0.95387414  0.68284872
   0.17395212  0.41464612  0.67537365
   0.81002978  0.75449344  0.54506052
Direct configuration=   415
   0.08158914  0.89343977  0.11087497
   0.43569227  0.92425738  0.68171013
   0.16790846  0.42337847  0.64776660
   0.81481013  0.75892439  0.55964829
Direct configuration=   420
   0.07890248  0.91798387  0.13115457
   0.43840108  0.89562586  0.68026764
   0.16269847  0.42157309  0.61125747
   0.81999797  0.76481718  0.57732031
Direct configuration=   425
   0.07677940  0.94355763  0.14242750
   0.43893353  0.87029911  0.67888720
   0.15953290  0.41389884  0.58010099
   0.82475417  0.77224443  0.59858431
Direct configuration=   430
   0.07439511  0.96091399  0.13411947
   0.43711157  0.84882644  0.67767206
   0.15989387  0.40904644  0.56525773
   0.82859945  0.78121313  0.62295073
Direct configuration=   435
   0.07114040  0.96412414  0.10723320
   0.43367191  0.83174345  0.67642135
   0.16387096  0.41241305  0.56874607
   0.83131673  0.79171936  0.64759937
Direct configuration=   440
   0.06934308  0.95668473  0.07716529
   0.43045397  0.82103088  0.67496885
   0.16884249  0.41956338  0.58141688
   0.83136046  0.80272102  0.66644898
Direct configuration=   445
   0.07304698  0.94516466  0.06241900
   0.42993334  0.81983446  0.67344015
   0.17120730  0.42282438  0.59174607
   0.82581238  0.81217650  0.67239478
Direct configuration=   450
   0.08251397  0.93220332  0.06967499
   0.43268848  0.82944115  0.67160235
   0.16961251  0.41807939  0.59392540
   0.81518504  0.82027614  0.66479726
Direct configuration=   455
   0.09340516  0.91701450  0.09229634
   0.43605673  0.84753662  0.66873903
   0.16571610  0.40631107  0.58938067
   0.80482201  0.82913782  0.64958395
Direct configuration=   460
   0.10202255  0.89901604  0.11831550
   0.43653063  0.87052637  0.66468790
   0.16183652  0.39108888  0.58537170
   0.79961030  0.83936871  0.63162490
Direct configuration=   465
   0.10692409  0.87868107  0.13658207
   0.43252791  0.89551540  0.66009487
   0.15920377  0.37575290  0.59047838
   0.80134423  0.85005063  0.61284467
Direct configuration=   470
   0.10788528  0.85762824  0.14152036
   0.42527412  0.91961115  0.65570021
   0.15751126  0.36256608  0.60864893
   0.80932933  0.86019453  0.59413050
Direct configuration=   475
   0.10547926  0.83859267  0.13559794
   0.41811258  0.93869912  0.65177872
   0.15498009  0.35338636  0.63595236
   0.82142807  0.86932185  0.57667098
Direct configuration=   480
   0.10121890  0.82474899  0.12700298
   0.41462550  0.94848848  0.64794568
   0.14966221  0.34936728  0.66242325
   0.83449339  0.87739525  0.56262809
Direct configuration=   485
   0.09744141  0.81924538  0.12387152
   0.41605523  0.94777437  0.64355368
   0.14186590  0.34842301  0.67754706
   0.84463746  0.88455724  0.55502774
Direct configuration=   490
   0.09677747  0.82340707  0.12891378
   0.42079323  0.93891768  0.63852132
   0.13424432  0.34688012  0.67570073
   0.84818498  0.89079512  0.55686417
Direct configuration=   495
   0.10087161  0.83479350  0.13843871
   0.42624430  0.92495625  0.63335512
   0.12934500  0.34483357  0.65912446
   0.84353909  0.89541669  0.56908171
Direct configuration=   500
   0.10894596  0.84899173  0.14602824
   0.43010711  0.90790160  0.62868204
   0.12806695  0.34575309  0.63609566
   0.83287998  0.89735357  0.58919405
Direct configuration=   505
   0.11861591  0.86214062  0.14560522
   0.43076214  0.88879087  0.62496685
   0.12952592  0.35253586  0.61623763
   0.82109603  0.89653265  0.61319030
Direct configuration=   510
   0.12788570  0.87222363  0.13381508
   0.42760382  0.86825847  0.62214877
   0.13195230  0.36540879  0.60573193
   0.81255818  0.89410911  0.63830421
Direct configuration=   515
   0.13569478  0.87998854  0.11307141
   0.42142952  0.84735189  0.61942647
   0.13361396  0.38120682  0.60408876
   0.80926174  0.89145276  0.66341335
Direct configuration=   520
   0.14129866  0.88784666  0.09149402
   0.41467662  0.82804595  0.61537025
   0.13284180  0.39461597  0.60520542
   0.81118292  0.88949142  0.68793031
Direct configuration=   525
   0.14419375  0.89751824  0.07847666
   0.41062403  0.81275383  0.60842906
   0.12799886  0.40114616  0.60209336
   0.81718337  0.88858178  0.71100092
Direct configuration=   530
   0.14500056  0.90818629  0.07860124
   0.41118077  0.80270624  0.59808731
   0.11834529  0.40043706  0.59196036
   0.82547337  0.88867041  0.73135109
Direct configuration=   535
   0.14592384  0.91646750  0.08867395
   0.41558508  0.79724451  0.58557852
   0.10484573  0.39680096  0.57821399
   0.83364535  0.88948703  0.74753353
Direct configuration=   540
   0.14971564  0.91893352  0.10051425
   0.42186577  0.79489280  0.57292280
   0.08939633  0.39546156  0.56786230
   0.83902226  0.89071212  0.75870064
Direct configuration=   545
   0.15799341  0.91474290  0.10664985
   0.42873357  0.79447500  0.56175564
   0.07365587  0.39853833  0.56596880
   0.83961716  0.89224376  0.76562572
Direct configuration=   550
   0.16994340  0.90651385  0.10428091
   0.43597772  0.79531135  0.55320756
   0.05930963  0.40367786  0.57180510
   0.83476925  0.89449694  0.77070643
Direct configuration=   555
   0.18243385  0.89806806  0.09475951
   0.44386046  0.79693774  0.54802560
   0.04860777  0.40684018  0.58045606
   0.82509792  0.89815403  0.77675883
Direct configuration=   560
   0.19203814  0.89172668  0.08145842
   0.45228147  0.79894124  0.54592676
   0.04325871  0.40603332  0.58709876
   0.81242168  0.90329876  0.78551606
Direct configuration=   565
   0.19692402  0.88809151  0.06856040
   0.46018884  0.80088461  0.54491890
   0.04318237  0.40177524  0.58919353
   0.79970477  0.90924865  0.79732716
Direct configuration=   570
   0.19694107  0.88688079  0.05981753
   0.46570380  0.80215833  0.54197313
   0.04693850  0.39551568  0.58597114
   0.79041663  0.91544520  0.81223820
Direct configuration=   575
   0.19273316  0.88735574  0.05724306
   0.46721230  0.80217907  0.53469057
   0.05289416  0.38869484  0.57741994
   0.78716038  0.92177036  0.83064643
Direct configuration=   580
   0.18510614  0.88845039  0.06036259
   0.46461140  0.80093615  0.52277517
   0.05982459  0.38272203  0.56424655
   0.79045787  0.92789143  0.85261569
Direct configuration=   585
   0.17505702  0.88896783  0.06588828
   0.45931232  0.79906350  0.50814563
   0.06672549  0.37897077  0.54875448
   0.79890517  0.93299790  0.87721160
Direct configuration=   590
   0.16429001  0.88785208  0.06839391
   0.45312641  0.79725550  0.49357188
   0.07251388  0.37849284  0.53526910
   0.81006970  0.93639958  0.90276511
Direct configuration=   595
   0.15576533  0.88465863  0.06309207
   0.44739586  0.79582292  0.48123234
   0.07620869  0.38143926  0.52834861
   0.82063011  0.93807919  0.92732699
Direct configuration=   600
   0.15342620  0.88012147  0.04899414
   0.44284544  0.79472571  0.47226643
   0.07734444  0.38649717  0.52949867
   0.82638392  0.93865565  0.94924077
Direct configuration=   605
   0.15972587  0.87607616  0.02903420
   0.43993160  0.79379191  0.46711966
   0.07581098  0.39138508  0.53557442
   0.82453155  0.93874685  0.96827172
Direct configuration=   610
   0.17267897  0.87483453  0.00773402
   0.43926957  0.79284379  0.46595410
   0.07141168  0.39413212  0.54057469
   0.81663978  0.93818956  0.98573718
Direct configuration=   615
   0.18745937  0.87800360  0.98913720
   0.44163937  0.79158378  0.46848502
   0.06404451  0.39408299  0.53933347
   0.80685674  0.93632963  0.00304432
Direct configuration=   620
   0.19966600  0.88552141  0.97521200
   0.44766909  0.78946907  0.47346688
   0.05425832  0.39228780  0.53013591
   0.79840660  0.93272173  0.02118520
Direct configuration=   625
   0.20635431  0.89619455  0.96601433
   0.45744036  0.78589650  0.47899809
   0.04316797  0.39073438  0.51429150
   0.79303736  0.92717457  0.04069608
Direct configuration=   630
   0.20625581  0.90855521  0.96026465
   0.47014826  0.78064361  0.48409371
   0.03174176  0.39120801  0.49431820
   0.79185417  0.91959317  0.06132344
Direct configuration=   635
   0.19971030  0.92097381  0.95571583
   0.48420086  0.77413591  0.48975132
   0.02042783  0.39485582  0.47288551
   0.79566101  0.91003446  0.08164734
Direct configuration=   640
   0.18808661  0.93182131  0.95014561
   0.49784456  0.76723390  0.49807241
   0.00961338  0.40195488  0.45304151
   0.80445545  0.89898992  0.09874047
Direct configuration=   645
   0.17341112  0.94001796  0.94219564
   0.50992764  0.76082421  0.51071559
   0.00050977  0.41106078  0.43892806
   0.81615147  0.88809705  0.10816070
Direct configuration=   650
   0.15881286  0.94540519  0.93120063
   0.52026528  0.75555237  0.52807843
   0.99526882  0.41812209  0.43546742
   0.82565303  0.88092035  0.10525351
Direct configuration=   655
   0.14868208  0.94845662  0.91703367
   0.52938313  0.75171282  0.54948240
   0.99505119  0.41932998  0.44502494
   0.82688360  0.88050058  0.08845899
Direct configuration=   660
   0.14639342  0.94908516  0.90166660
   0.53781727  0.74926963  0.57326655
   0.99794988  0.41631767  0.46298364
   0.81783943  0.88532754  0.06208322
Direct configuration=   665
   0.15135500  0.94587094  0.89016445
   0.54520410  0.74759769  0.59571928
   0.00016941  0.41401996  0.47985884
   0.80327149  0.89251140  0.03425743
Direct configuration=   670
   0.16025541  0.93792096  0.88682781
   0.54916199  0.74456413  0.61013233
   0.99870847  0.41512908  0.48844631
   0.79187412  0.90238583  0.01459354
Direct configuration=   675
   0.17003714  0.92667529  0.89195855
   0.54654882  0.73691970  0.60992844
   0.99267755  0.41884842  0.48716825
   0.79073649  0.91755659  0.01094476
Direct configuration=   680
   0.17867166  0.91441034  0.90350088
   0.53828720  0.72419458  0.59605077
   0.98313928  0.42343176  0.47842289
   0.79990186  0.93796333  0.02202546
Direct configuration=   685
   0.18517393  0.90238787  0.91927763
   0.52837712  0.70923641  0.57486692
   0.97231234  0.42885318  0.46686213
   0.81413661  0.95952254  0.03899332
Direct configuration=   690
   0.18953977  0.89089439  0.93740997
   0.51941563  0.69454497  0.55097531
   0.96305154  0.43767327  0.45978094
   0.82799307  0.97688736  0.05183377
Direct configuration=   695
   0.19251070  0.87982027  0.95660213
   0.51214620  0.68108462  0.52624015
   0.95772250  0.45330960  0.46492897
   0.83762061  0.98578551  0.05222875
Direct configuration=   700
   0.19516708  0.86902482  0.97614316
   0.50653442  0.66909211  0.50134988
   0.95642553  0.47509003  0.48445038
   0.84187296  0.98679305  0.03805658
Direct configuration=   705
   0.19821207  0.85865955  0.99548051
   0.50250092  0.65871969  0.47704298
   0.95744860  0.49772877  0.51274006
   0.84183840  0.98489199  0.01473645
Direct configuration=   710
   0.20140426  0.84935509  0.01380450
   0.50023126  0.65012884  0.45447651
   0.95951862  0.51583971  0.54027191
   0.83884585  0.98467637  0.99144708
Direct configuration=   715
   0.20366479  0.84204404  0.03015272
   0.50026098  0.64325727  0.43497632
   0.96274122  0.52526837  0.55803567
   0.83333301  0.98943033  0.97683528
Direct configuration=   720
   0.20368267  0.83774239  0.04355525
   0.50332554  0.63765732  0.41958025
   0.96745603  0.52439641  0.56200423
   0.82553576  0.00020389  0.97486026
Direct configuration=   725
   0.20066286  0.83735066  0.05315937
   0.50991386  0.63267981  0.40855024
   0.97282616  0.51558132  0.55481575
   0.81659713  0.01438822  0.98347464
Direct configuration=   730
   0.19481429  0.84157223  0.05828872
   0.51984386  0.62776041  0.40132332
   0.97717995  0.50230284  0.54243351
   0.80816189  0.02836453  0.99795445
Direct configuration=   735
   0.18704188  0.85094039  0.05857974
   0.53239650  0.62236980  0.39696376
   0.97916757  0.48656530  0.53030212
   0.80139405  0.04012451  0.01415438
Direct configuration=   740
   0.17817636  0.86561803  0.05431196
   0.54675683  0.61574526  0.39474606
   0.97843704  0.46960714  0.52178475
   0.79662977  0.04902956  0.02915722
Direct configuration=   745
   0.16858523  0.88496100  0.04659137
   0.56217768  0.60690140  0.39452495
   0.97570755  0.45338018  0.51830893
   0.79352954  0.05475742  0.04057475
Direct configuration=   750
   0.15849838  0.90732606  0.03690141
   0.57782603  0.59506262  0.39689578
   0.97240884  0.44081361  0.52005514
   0.79126675  0.05679772  0.04614767
Direct configuration=   755
   0.14857336  0.93044641  0.02646573
   0.59263097  0.58017942  0.40307118
   0.97003520  0.43484445  0.52618877
   0.78876046  0.05452973  0.04427432
Direct configuration=   760
   0.14011566  0.95213188  0.01618216
   0.60531202  0.56311917  0.41439589
   0.96960681  0.43708507  0.53452608
   0.78496552  0.04766388  0.03489587
Direct configuration=   765
   0.13464339  0.97092351  0.00709216
   0.61467029  0.54518111  0.43163740
   0.97156620  0.44735502  0.54185494
   0.77912013  0.03654036  0.01941549
Direct configuration=   770
   0.13295065  0.98636739  0.00060970
   0.62005234  0.52737145  0.45422730
   0.97590328  0.46406453  0.54521266
   0.77109373  0.02219664  0.99995034
Direct configuration=   775
   0.13447854  0.99884812  0.99807022
   0.62162772  0.51001493  0.47965113
   0.98215031  0.48484138  0.54295613
   0.76174343  0.00629557  0.97932251
Direct configuration=   780
   0.13763397  0.00931467  0.99990308
   0.62018755  0.49306060  0.50349241
   0.98928589  0.50700938  0.53494951
   0.75289259  0.99061535  0.96165500
Direct configuration=   785
   0.14075235  0.01900828  0.00523961
   0.61658594  0.47650900  0.52070009
   0.99590446  0.52811622  0.52230616
   0.74675725  0.97636650  0.95175414
Direct configuration=   790
   0.14282119  0.02913204  0.01214171
   0.61155329  0.46074328  0.52788120
   0.00066542  0.54626489  0.50709722
   0.74496010  0.96385979  0.95287987
Direct configuration=   795
   0.14361928  0.04061681  0.01808204
   0.60599681  0.44638328  0.52499129
   0.00257351  0.56024000  0.49205266
   0.74781040  0.95275992  0.96487401
Direct configuration=   800
   0.14348776  0.05387910  0.02063718
   0.60107024  0.43385132  0.51504949
   0.00110546  0.56938661  0.48004000
   0.75433654  0.94288298  0.98427332
Direct configuration=   805
   0.14296709  0.06850172  0.01836142
   0.59770358  0.42321319  0.50224634
   0.99643430  0.57360034  0.47344960
   0.76289502  0.93468475  0.00594264
Direct configuration=   810
   0.14255215  0.08328472  0.01128998
   0.59614600  0.41437415  0.49000832
   0.98962188  0.57306216  0.47385329
   0.77167997  0.92927897  0.02484841
Direct configuration=   815
   0.14264722  0.09676405  0.00065681
   0.59597448  0.40729040  0.48024457
   0.98235701  0.56776361  0.48203534
   0.77902129  0.92818194  0.03706327
Direct configuration=   820
   0.14366004  0.10771687  0.98828241
   0.59645780  0.40206253  0.47371082
   0.97603358  0.55776177  0.49740534
   0.78384858  0.93245883  0.04060144
Direct configuration=   825
   0.14610100  0.11516716  0.97634883
   0.59688081  0.39895579  0.47055380
   0.97086294  0.54416590  0.51695548
   0.78615524  0.94171115  0.03614189
Direct configuration=   830
   0.15059137  0.11802078  0.96739110
   0.59668822  0.39833181  0.47056498