 running on    4 nodes
 distr:  one band on    1 nodes,    4 groups
 md.x 0.99
 POSCAR found :  1 types and      432 ions
Rc and Rl:   5.500000  7.321000
 TIPO = eam     
 TIPO1 = uknown p
 Using EAM

 EAM parameters: 
 C  =   9.9634  EPS  = 0.2048  A  = 3.5678  M  = 3.127  N  =  6.366  R1 =   5.500000


 ----------------------------------------------------------------------------- 
|                                                                             |
|           W    W    AA    RRRRR   N    N  II  N    N   GGGG   !!!           |
|           W    W   A  A   R    R  NN   N  II  NN   N  G    G  !!!           |
|           W    W  A    A  R    R  N N  N  II  N N  N  G       !!!           |
|           W WW W  AAAAAA  RRRRR   N  N N  II  N  N N  G  GGG   !            |
|           WW  WW  A    A  R   R   N   NN  II  N   NN  G    G                |
|           W    W  A    A  R    R  N    N  II  N    N   GGGG   !!!           |
|                                                                             |
|      VASP found   1293 degrees of freedom                                   |
|      the temperature will equal 2*E(kin)/ (degrees of freedom)              |
|      this differs from previous releases, where T was 2*E(kin)/(3 NIONS).   |
|      The new definition is more consistent                                  |
|                                                                             |
 ----------------------------------------------------------------------------- 

 Random init:        6262       13833
 Random init:        6262       13833
 Random init:        6262       13833
 Random init:        6262       13833
 alloco spazio per displ
       10 T=   898. E= -.23077313E+04 F= -.23577613E+04 EK= 0.50030E+02 SP= 0.00E+00 SK= 0.00E+00
       20 T=   690. E= -.23077311E+04 F= -.23461933E+04 EK= 0.38462E+02 SP= 0.00E+00 SK= 0.00E+00
       30 T=   440. E= -.23077245E+04 F= -.23322510E+04 EK= 0.24526E+02 SP= 0.00E+00 SK= 0.00E+00
       40 T=   345. E= -.23077243E+04 F= -.23269387E+04 EK= 0.19214E+02 SP= 0.00E+00 SK= 0.00E+00
       50 T=   409. E= -.23077319E+04 F= -.23305310E+04 EK= 0.22799E+02 SP= 0.00E+00 SK= 0.00E+00
       60 T=   477. E= -.23077354E+04 F= -.23342845E+04 EK= 0.26549E+02 SP= 0.00E+00 SK= 0.00E+00
       70 T=   462. E= -.23077345E+04 F= -.23334883E+04 EK= 0.25754E+02 SP= 0.00E+00 SK= 0.00E+00
       80 T=   413. E= -.23077337E+04 F= -.23307500E+04 EK= 0.23016E+02 SP= 0.00E+00 SK= 0.00E+00
       90 T=   410. E= -.23077341E+04 F= -.23305645E+04 EK= 0.22830E+02 SP= 0.00E+00 SK= 0.00E+00
      100 T=   462. E= -.23077362E+04 F= -.23334580E+04 EK= 0.25722E+02 SP= 0.00E+00 SK= 0.00E+00
      110 T=   521. E= -.23077385E+04 F= -.23367554E+04 EK= 0.29017E+02 SP= 0.00E+00 SK= 0.00E+00
      120 T=   551. E= -.23077384E+04 F= -.23384123E+04 EK= 0.30674E+02 SP= 0.00E+00 SK= 0.00E+00
      130 T=   548. E= -.23077390E+04 F= -.23382894E+04 EK= 0.30550E+02 SP= 0.00E+00 SK= 0.00E+00
      140 T=   531. E= -.23077358E+04 F= -.23373390E+04 EK= 0.29603E+02 SP= 0.00E+00 SK= 0.00E+00
      150 T=   531. E= -.23077361E+04 F= -.23372958E+04 EK= 0.29560E+02 SP= 0.00E+00 SK= 0.00E+00
      160 T=   554. E= -.23077371E+04 F= -.23385930E+04 EK= 0.30856E+02 SP= 0.00E+00 SK= 0.00E+00
      170 T=   575. E= -.23077353E+04 F= -.23397800E+04 EK= 0.32045E+02 SP= 0.00E+00 SK= 0.00E+00
      180 T=   571. E= -.23077351E+04 F= -.23395457E+04 EK= 0.31811E+02 SP= 0.00E+00 SK= 0.00E+00
      190 T=   540. E= -.23077330E+04 F= -.23377980E+04 EK= 0.30065E+02 SP= 0.00E+00 SK= 0.00E+00
      200 T=   501. E= -.23077305E+04 F= -.23356669E+04 EK= 0.27936E+02 SP= 0.00E+00 SK= 0.00E+00
      210 T=   483. E= -.23077277E+04 F= -.23346573E+04 EK= 0.26930E+02 SP= 0.00E+00 SK= 0.00E+00
      220 T=   501. E= -.23077274E+04 F= -.23356447E+04 EK= 0.27917E+02 SP= 0.00E+00 SK= 0.00E+00
      230 T=   540. E= -.23077266E+04 F= -.23378243E+04 EK= 0.30098E+02 SP= 0.00E+00 SK= 0.00E+00
      240 T=   562. E= -.23077273E+04 F= -.23390172E+04 EK= 0.31290E+02 SP= 0.00E+00 SK= 0.00E+00
      250 T=   550. E= -.23077283E+04 F= -.23383850E+04 EK= 0.30657E+02 SP= 0.00E+00 SK= 0.00E+00
      260 T=   530. E= -.23077255E+04 F= -.23372631E+04 EK= 0.29538E+02 SP= 0.00E+00 SK= 0.00E+00
      270 T=   515. E= -.23077276E+04 F= -.23364158E+04 EK= 0.28688E+02 SP= 0.00E+00 SK= 0.00E+00
      280 T=   504. E= -.23077306E+04 F= -.23358305E+04 EK= 0.28100E+02 SP= 0.00E+00 SK= 0.00E+00
      290 T=   507. E= -.23077287E+04 F= -.23359687E+04 EK= 0.28240E+02 SP= 0.00E+00 SK= 0.00E+00
      300 T=   529. E= -.23077309E+04 F= -.23372234E+04 EK= 0.29492E+02 SP= 0.00E+00 SK= 0.00E+00
      310 T=   555. E= -.23077326E+04 F= -.23386585E+04 EK= 0.30926E+02 SP= 0.00E+00 SK= 0.00E+00
      320 T=   564. E= -.23077357E+04 F= -.23391696E+04 EK= 0.31434E+02 SP= 0.00E+00 SK= 0.00E+00
      330 T=   556. E= -.23077426E+04 F= -.23387103E+04 EK= 0.30968E+02 SP= 0.00E+00 SK= 0.00E+00
      340 T=   532. E= -.23077468E+04 F= -.23374090E+04 EK= 0.29662E+02 SP= 0.00E+00 SK= 0.00E+00
      350 T=   514. E= -.23077463E+04 F= -.23363759E+04 EK= 0.28630E+02 SP= 0.00E+00 SK= 0.00E+00
      360 T=   512. E= -.23077476E+04 F= -.23362493E+04 EK= 0.28502E+02 SP= 0.00E+00 SK= 0.00E+00
      370 T=   517. E= -.23077478E+04 F= -.23365271E+04 EK= 0.28779E+02 SP= 0.00E+00 SK= 0.00E+00
      380 T=   520. E= -.23077437E+04 F= -.23367305E+04 EK= 0.28987E+02 SP= 0.00E+00 SK= 0.00E+00
      390 T=   525. E= -.23077419E+04 F= -.23370082E+04 EK= 0.29266E+02 SP= 0.00E+00 SK= 0.00E+00
      400 T=   537. E= -.23077446E+04 F= -.23376702E+04 EK= 0.29926E+02 SP= 0.00E+00 SK= 0.00E+00
      410 T=   548. E= -.23077442E+04 F= -.23382465E+04 EK= 0.30502E+02 SP= 0.00E+00 SK= 0.00E+00
      420 T=   545. E= -.23077423E+04 F= -.23381043E+04 EK= 0.30362E+02 SP= 0.00E+00 SK= 0.00E+00
      430 T=   531. E= -.23077451E+04 F= -.23373071E+04 EK= 0.29562E+02 SP= 0.00E+00 SK= 0.00E+00
      440 T=   521. E= -.23077410E+04 F= -.23367418E+04 EK= 0.29001E+02 SP= 0.00E+00 SK= 0.00E+00
      450 T=   533. E= -.23077444E+04 F= -.23374616E+04 EK= 0.29717E+02 SP= 0.00E+00 SK= 0.00E+00
      460 T=   560. E= -.23077434E+04 F= -.23389440E+04 EK= 0.31201E+02 SP= 0.00E+00 SK= 0.00E+00
      470 T=   580. E= -.23077480E+04 F= -.23400568E+04 EK= 0.32309E+02 SP= 0.00E+00 SK= 0.00E+00
      480 T=   576. E= -.23077447E+04 F= -.23398229E+04 EK= 0.32078E+02 SP= 0.00E+00 SK= 0.00E+00
      490 T=   557. E= -.23077485E+04 F= -.23387764E+04 EK= 0.31028E+02 SP= 0.00E+00 SK= 0.00E+00
      500 T=   537. E= -.23077495E+04 F= -.23376817E+04 EK= 0.29932E+02 SP= 0.00E+00 SK= 0.00E+00
      510 T=   520. E= -.23077447E+04 F= -.23367322E+04 EK= 0.28988E+02 SP= 0.00E+00 SK= 0.00E+00
      520 T=   511. E= -.23077449E+04 F= -.23361928E+04 EK= 0.28448E+02 SP= 0.00E+00 SK= 0.00E+00
      530 T=   508. E= -.23077455E+04 F= -.23360270E+04 EK= 0.28282E+02 SP= 0.00E+00 SK= 0.00E+00
      540 T=   507. E= -.23077434E+04 F= -.23359640E+04 EK= 0.28221E+02 SP= 0.00E+00 SK= 0.00E+00
      550 T=   509. E= -.23077438E+04 F= -.23361233E+04 EK= 0.28379E+02 SP= 0.00E+00 SK= 0.00E+00
      560 T=   521. E= -.23077435E+04 F= -.23367497E+04 EK= 0.29006E+02 SP= 0.00E+00 SK= 0.00E+00
      570 T=   534. E= -.23077426E+04 F= -.23375083E+04 EK= 0.29766E+02 SP= 0.00E+00 SK= 0.00E+00
      580 T=   541. E= -.23077420E+04 F= -.23378804E+04 EK= 0.30138E+02 SP= 0.00E+00 SK= 0.00E+00
      590 T=   543. E= -.23077444E+04 F= -.23380222E+04 EK= 0.30278E+02 SP= 0.00E+00 SK= 0.00E+00
      600 T=   544. E= -.23077419E+04 F= -.23380395E+04 EK= 0.30298E+02 SP= 0.00E+00 SK= 0.00E+00
      610 T=   539. E= -.23077410E+04 F= -.23377895E+04 EK= 0.30048E+02 SP= 0.00E+00 SK= 0.00E+00
      620 T=   529. E= -.23077375E+04 F= -.23372015E+04 EK= 0.29464E+02 SP= 0.00E+00 SK= 0.00E+00
      630 T=   521. E= -.23077340E+04 F= -.23367319E+04 EK= 0.28998E+02 SP= 0.00E+00 SK= 0.00E+00
      640 T=   527. E= -.23077294E+04 F= -.23370735E+04 EK= 0.29344E+02 SP= 0.00E+00 SK= 0.00E+00
      650 T=   542. E= -.23077276E+04 F= -.23379171E+04 EK= 0.30190E+02 SP= 0.00E+00 SK= 0.00E+00
      660 T=   548. E= -.23077305E+04 F= -.23382809E+04 EK= 0.30550E+02 SP= 0.00E+00 SK= 0.00E+00
      670 T=   537. E= -.23077328E+04 F= -.23376327E+04 EK= 0.29900E+02 SP= 0.00E+00 SK= 0.00E+00
      680 T=   515. E= -.23077314E+04 F= -.23364235E+04 EK= 0.28692E+02 SP= 0.00E+00 SK= 0.00E+00
      690 T=   503. E= -.23077342E+04 F= -.23357782E+04 EK= 0.28044E+02 SP= 0.00E+00 SK= 0.00E+00
      700 T=   511. E= -.23077345E+04 F= -.23361757E+04 EK= 0.28441E+02 SP= 0.00E+00 SK= 0.00E+00
      710 T=   528. E= -.23077324E+04 F= -.23371315E+04 EK= 0.29399E+02 SP= 0.00E+00 SK= 0.00E+00
      720 T=   538. E= -.23077306E+04 F= -.23376942E+04 EK= 0.29964E+02 SP= 0.00E+00 SK= 0.00E+00
      730 T=   534. E= -.23077299E+04 F= -.23374853E+04 EK= 0.29755E+02 SP= 0.00E+00 SK= 0.00E+00
      740 T=   522. E= -.23077289E+04 F= -.23368344E+04 EK= 0.29106E+02 SP= 0.00E+00 SK= 0.00E+00
      750 T=   519. E= -.23077305E+04 F= -.23366573E+04 EK= 0.28927E+02 SP= 0.00E+00 SK= 0.00E+00
      760 T=   534. E= -.23077326E+04 F= -.23374614E+04 EK= 0.29729E+02 SP= 0.00E+00 SK= 0.00E+00
      770 T=   552. E= -.23077344E+04 F= -.23385052E+04 EK= 0.30771E+02 SP= 0.00E+00 SK= 0.00E+00
      780 T=   555. E= -.23077350E+04 F= -.23386412E+04 EK= 0.30906E+02 SP= 0.00E+00 SK= 0.00E+00
      790 T=   544. E= -.23077338E+04 F= -.23380387E+04 EK= 0.30305E+02 SP= 0.00E+00 SK= 0.00E+00
      800 T=   536. E= -.23077296E+04 F= -.23375757E+04 EK= 0.29846E+02 SP= 0.00E+00 SK= 0.00E+00
      810 T=   535. E= -.23077312E+04 F= -.23375507E+04 EK= 0.29819E+02 SP= 0.00E+00 SK= 0.00E+00
      820 T=   539. E= -.23077314E+04 F= -.23377677E+04 EK= 0.30036E+02 SP= 0.00E+00 SK= 0.00E+00
      830 T=   540. E= -.23077336E+04 F= -.23378207E+04 EK= 0.30087E+02 SP= 0.00E+00 SK= 0.00E+00
      840 T=   535. E= -.23077361E+04 F= -.23375632E+04 EK= 0.29827E+02 SP= 0.00E+00 SK= 0.00E+00
      850 T=   528. E= -.23077366E+04 F= -.23371279E+04 EK= 0.29391E+02 SP= 0.00E+00 SK= 0.00E+00
Randomizing velocities, T =   970.
      860 T=   950. E= -.22829610E+04 F= -.23359065E+04 EK= 0.52946E+02 SP= 0.00E+00 SK= 0.00E+00
      870 T=   843. E= -.22829594E+04 F= -.23299066E+04 EK= 0.46947E+02 SP= 0.00E+00 SK= 0.00E+00
      880 T=   718. E= -.22829578E+04 F= -.23229860E+04 EK= 0.40028E+02 SP= 0.00E+00 SK= 0.00E+00
      890 T=   673. E= -.22829557E+04 F= -.23204365E+04 EK= 0.37481E+02 SP= 0.00E+00 SK= 0.00E+00
      900 T=   696. E= -.22829598E+04 F= -.23217571E+04 EK= 0.38797E+02 SP= 0.00E+00 SK= 0.00E+00
      910 T=   737. E= -.22829623E+04 F= -.23240299E+04 EK= 0.41068E+02 SP= 0.00E+00 SK= 0.00E+00
      920 T=   759. E= -.22829648E+04 F= -.23252646E+04 EK= 0.42300E+02 SP= 0.00E+00 SK= 0.00E+00
      930 T=   754. E= -.22829604E+04 F= -.23249860E+04 EK= 0.42026E+02 SP= 0.00E+00 SK= 0.00E+00
      940 T=   746. E= -.22829589E+04 F= -.23245461E+04 EK= 0.41587E+02 SP= 0.00E+00 SK= 0.00E+00
      950 T=   751. E= -.22829563E+04 F= -.23247995E+04 EK= 0.41843E+02 SP= 0.00E+00 SK= 0.00E+00
      960 T=   763. E= -.22829545E+04 F= -.23254568E+04 EK= 0.42502E+02 SP= 0.00E+00 SK= 0.00E+00
      970 T=   773. E= -.22829568E+04 F= -.23260347E+04 EK= 0.43078E+02 SP= 0.00E+00 SK= 0.00E+00
      980 T=   773. E= -.22829597E+04 F= -.23260191E+04 EK= 0.43059E+02 SP= 0.00E+00 SK= 0.00E+00
      990 T=   771. E= -.22829671E+04 F= -.23259379E+04 EK= 0.42971E+02 SP= 0.00E+00 SK= 0.00E+00
     1000 T=   772. E= -.22829694E+04 F= -.23259670E+04 EK= 0.42998E+02 SP= 0.00E+00 SK= 0.00E+00
     1010 T=   772. E= -.22829736E+04 F= -.23259755E+04 EK= 0.43002E+02 SP= 0.00E+00 SK= 0.00E+00
     1020 T=   770. E= -.22829742E+04 F= -.23258847E+04 EK= 0.42910E+02 SP= 0.00E+00 SK= 0.00E+00
     1030 T=   764. E= -.22829746E+04 F= -.23255630E+04 EK= 0.42588E+02 SP= 0.00E+00 SK= 0.00E+00
     1040 T=   755. E= -.22829763E+04 F= -.23250149E+04 EK= 0.42039E+02 SP= 0.00E+00 SK= 0.00E+00
     1050 T=   755. E= -.22829835E+04 F= -.23250543E+04 EK= 0.42071E+02 SP= 0.00E+00 SK= 0.00E+00
     1060 T=   769. E= -.22829794E+04 F= -.23258295E+04 EK= 0.42850E+02 SP= 0.00E+00 SK= 0.00E+00
     1070 T=   778. E= -.22829829E+04 F= -.23263520E+04 EK= 0.43369E+02 SP= 0.00E+00 SK= 0.00E+00
     1080 T=   768. E= -.22829863E+04 F= -.23257812E+04 EK= 0.42795E+02 SP= 0.00E+00 SK= 0.00E+00
     1090 T=   752. E= -.22829801E+04 F= -.23248715E+04 EK= 0.41891E+02 SP= 0.00E+00 SK= 0.00E+00
     1100 T=   751. E= -.22829803E+04 F= -.23248105E+04 EK= 0.41830E+02 SP= 0.00E+00 SK= 0.00E+00
     1110 T=   764. E= -.22829815E+04 F= -.23255416E+04 EK= 0.42560E+02 SP= 0.00E+00 SK= 0.00E+00
     1120 T=   770. E= -.22829838E+04 F= -.23258829E+04 EK= 0.42899E+02 SP= 0.00E+00 SK= 0.00E+00
     1130 T=   764. E= -.22829857E+04 F= -.23255334E+04 EK= 0.42548E+02 SP= 0.00E+00 SK= 0.00E+00
     1140 T=   747. E= -.22829832E+04 F= -.23246267E+04 EK= 0.41644E+02 SP= 0.00E+00 SK= 0.00E+00
     1150 T=   738. E= -.22829846E+04 F= -.23240885E+04 EK= 0.41104E+02 SP= 0.00E+00 SK= 0.00E+00
     1160 T=   746. E= -.22829832E+04 F= -.23245646E+04 EK= 0.41581E+02 SP= 0.00E+00 SK= 0.00E+00
     1170 T=   772. E= -.22829848E+04 F= -.23259923E+04 EK= 0.43007E+02 SP= 0.00E+00 SK= 0.00E+00
     1180 T=   789. E= -.22829912E+04 F= -.23269737E+04 EK= 0.43982E+02 SP= 0.00E+00 SK= 0.00E+00
     1190 T=   781. E= -.22829865E+04 F= -.23264952E+04 EK= 0.43509E+02 SP= 0.00E+00 SK= 0.00E+00
     1200 T=   765. E= -.22829864E+04 F= -.23256293E+04 EK= 0.42643E+02 SP= 0.00E+00 SK= 0.00E+00
     1210 T=   770. E= -.22829859E+04 F= -.23258609E+04 EK= 0.42875E+02 SP= 0.00E+00 SK= 0.00E+00
     1220 T=   778. E= -.22829887E+04 F= -.23263299E+04 EK= 0.43341E+02 SP= 0.00E+00 SK= 0.00E+00
     1230 T=   775. E= -.22829874E+04 F= -.23261506E+04 EK= 0.43163E+02 SP= 0.00E+00 SK= 0.00E+00
     1240 T=   777. E= -.22829887E+04 F= -.23262967E+04 EK= 0.43308E+02 SP= 0.00E+00 SK= 0.00E+00
     1250 T=   782. E= -.22829781E+04 F= -.23265315E+04 EK= 0.43553E+02 SP= 0.00E+00 SK= 0.00E+00
Randomizing velocities, T =   970.
     1260 T=   970. E= -.22722152E+04 F= -.23262393E+04 EK= 0.54024E+02 SP= 0.00E+00 SK= 0.00E+00
     1270 T=   943. E= -.22722141E+04 F= -.23247460E+04 EK= 0.52532E+02 SP= 0.00E+00 SK= 0.00E+00
     1280 T=   890. E= -.22722164E+04 F= -.23217791E+04 EK= 0.49563E+02 SP= 0.00E+00 SK= 0.00E+00
     1290 T=   845. E= -.22722228E+04 F= -.23192912E+04 EK= 0.47068E+02 SP= 0.00E+00 SK= 0.00E+00
     1300 T=   819. E= -.22722196E+04 F= -.23178368E+04 EK= 0.45617E+02 SP= 0.00E+00 SK= 0.00E+00
     1310 T=   817. E= -.22722193E+04 F= -.23177258E+04 EK= 0.45506E+02 SP= 0.00E+00 SK= 0.00E+00
     1320 T=   842. E= -.22722163E+04 F= -.23191274E+04 EK= 0.46911E+02 SP= 0.00E+00 SK= 0.00E+00
     1330 T=   863. E= -.22722196E+04 F= -.23203020E+04 EK= 0.48082E+02 SP= 0.00E+00 SK= 0.00E+00
     1340 T=   868. E= -.22722197E+04 F= -.23205678E+04 EK= 0.48348E+02 SP= 0.00E+00 SK= 0.00E+00
     1350 T=   861. E= -.22722215E+04 F= -.23202026E+04 EK= 0.47981E+02 SP= 0.00E+00 SK= 0.00E+00
     1360 T=   854. E= -.22722206E+04 F= -.23197811E+04 EK= 0.47561E+02 SP= 0.00E+00 SK= 0.00E+00
     1370 T=   844. E= -.22722218E+04 F= -.23192326E+04 EK= 0.47011E+02 SP= 0.00E+00 SK= 0.00E+00
     1380 T=   832. E= -.22722217E+04 F= -.23185957E+04 EK= 0.46374E+02 SP= 0.00E+00 SK= 0.00E+00
     1390 T=   834. E= -.22722209E+04 F= -.23186806E+04 EK= 0.46460E+02 SP= 0.00E+00 SK= 0.00E+00
     1400 T=   850. E= -.22722213E+04 F= -.23195950E+04 EK= 0.47374E+02 SP= 0.00E+00 SK= 0.00E+00
     1410 T=   868. E= -.22722233E+04 F= -.23206032E+04 EK= 0.48380E+02 SP= 0.00E+00 SK= 0.00E+00
     1420 T=   872. E= -.22722255E+04 F= -.23207946E+04 EK= 0.48569E+02 SP= 0.00E+00 SK= 0.00E+00
     1430 T=   859. E= -.22722312E+04 F= -.23200812E+04 EK= 0.47850E+02 SP= 0.00E+00 SK= 0.00E+00
     1440 T=   849. E= -.22722326E+04 F= -.23195296E+04 EK= 0.47297E+02 SP= 0.00E+00 SK= 0.00E+00
     1450 T=   876. E= -.22722369E+04 F= -.23210634E+04 EK= 0.48826E+02 SP= 0.00E+00 SK= 0.00E+00
     1460 T=   917. E= -.22722366E+04 F= -.23233170E+04 EK= 0.51080E+02 SP= 0.00E+00 SK= 0.00E+00
     1470 T=   923. E= -.22722361E+04 F= -.23236401E+04 EK= 0.51404E+02 SP= 0.00E+00 SK= 0.00E+00
     1480 T=   903. E= -.22722357E+04 F= -.23225166E+04 EK= 0.50281E+02 SP= 0.00E+00 SK= 0.00E+00
     1490 T=   879. E= -.22722309E+04 F= -.23211897E+04 EK= 0.48959E+02 SP= 0.00E+00 SK= 0.00E+00
     1500 T=   848. E= -.22722364E+04 F= -.23194991E+04 EK= 0.47263E+02 SP= 0.00E+00 SK= 0.00E+00
     1510 T=   812. E= -.22722369E+04 F= -.23174735E+04 EK= 0.45237E+02 SP= 0.00E+00 SK= 0.00E+00
     1520 T=   799. E= -.22722364E+04 F= -.23167580E+04 EK= 0.44522E+02 SP= 0.00E+00 SK= 0.00E+00
     1530 T=   825. E= -.22722372E+04 F= -.23181769E+04 EK= 0.45940E+02 SP= 0.00E+00 SK= 0.00E+00
     1540 T=   865. E= -.22722385E+04 F= -.23204133E+04 EK= 0.48175E+02 SP= 0.00E+00 SK= 0.00E+00
     1550 T=   889. E= -.22722394E+04 F= -.23217602E+04 EK= 0.49521E+02 SP= 0.00E+00 SK= 0.00E+00
     1560 T=   891. E= -.22722439E+04 F= -.23218872E+04 EK= 0.49643E+02 SP= 0.00E+00 SK= 0.00E+00
     1570 T=   885. E= -.22722448E+04 F= -.23215369E+04 EK= 0.49292E+02 SP= 0.00E+00 SK= 0.00E+00
     1580 T=   891. E= -.22722437E+04 F= -.23218916E+04 EK= 0.49648E+02 SP= 0.00E+00 SK= 0.00E+00
     1590 T=   899. E= -.22722459E+04 F= -.23223568E+04 EK= 0.50111E+02 SP= 0.00E+00 SK= 0.00E+00
     1600 T=   891. E= -.22722436E+04 F= -.23218875E+04 EK= 0.49644E+02 SP= 0.00E+00 SK= 0.00E+00
     1610 T=   871. E= -.22722437E+04 F= -.23207457E+04 EK= 0.48502E+02 SP= 0.00E+00 SK= 0.00E+00
     1620 T=   859. E= -.22722426E+04 F= -.23200909E+04 EK= 0.47848E+02 SP= 0.00E+00 SK= 0.00E+00
     1630 T=   867. E= -.22722440E+04 F= -.23205195E+04 EK= 0.48276E+02 SP= 0.00E+00 SK= 0.00E+00
     1640 T=   859. E= -.22722407E+04 F= -.23200743E+04 EK= 0.47834E+02 SP= 0.00E+00 SK= 0.00E+00
     1650 T=   838. E= -.22722369E+04 F= -.23189310E+04 EK= 0.46694E+02 SP= 0.00E+00 SK= 0.00E+00
     1660 T=   839. E= -.22722397E+04 F= -.23189988E+04 EK= 0.46759E+02 SP= 0.00E+00 SK= 0.00E+00
     1670 T=   861. E= -.22722340E+04 F= -.23201869E+04 EK= 0.47953E+02 SP= 0.00E+00 SK= 0.00E+00
     1680 T=   878. E= -.22722331E+04 F= -.23211510E+04 EK= 0.48918E+02 SP= 0.00E+00 SK= 0.00E+00
     1690 T=   874. E= -.22722322E+04 F= -.23208966E+04 EK= 0.48664E+02 SP= 0.00E+00 SK= 0.00E+00
     1700 T=   863. E= -.22722362E+04 F= -.23203108E+04 EK= 0.48075E+02 SP= 0.00E+00 SK= 0.00E+00
     1710 T=   878. E= -.22722344E+04 F= -.23211578E+04 EK= 0.48923E+02 SP= 0.00E+00 SK= 0.00E+00
     1720 T=   893. E= -.22722370E+04 F= -.23219657E+04 EK= 0.49729E+02 SP= 0.00E+00 SK= 0.00E+00
     1730 T=   862. E= -.22722322E+04 F= -.23202289E+04 EK= 0.47997E+02 SP= 0.00E+00 SK= 0.00E+00
     1740 T=   834. E= -.22722314E+04 F= -.23186819E+04 EK= 0.46450E+02 SP= 0.00E+00 SK= 0.00E+00
     1750 T=   865. E= -.22722288E+04 F= -.23204118E+04 EK= 0.48183E+02 SP= 0.00E+00 SK= 0.00E+00
     1760 T=   930. E= -.22722303E+04 F= -.23240428E+04 EK= 0.51812E+02 SP= 0.00E+00 SK= 0.00E+00
     1770 T=   957. E= -.22722274E+04 F= -.23255602E+04 EK= 0.53333E+02 SP= 0.00E+00 SK= 0.00E+00
     1780 T=   923. E= -.22722262E+04 F= -.23236491E+04 EK= 0.51423E+02 SP= 0.00E+00 SK= 0.00E+00
     1790 T=   871. E= -.22722302E+04 F= -.23207586E+04 EK= 0.48528E+02 SP= 0.00E+00 SK= 0.00E+00
     1800 T=   857. E= -.22722297E+04 F= -.23199785E+04 EK= 0.47749E+02 SP= 0.00E+00 SK= 0.00E+00
     1810 T=   876. E= -.22722292E+04 F= -.23210137E+04 EK= 0.48785E+02 SP= 0.00E+00 SK= 0.00E+00
     1820 T=   893. E= -.22722276E+04 F= -.23219794E+04 EK= 0.49752E+02 SP= 0.00E+00 SK= 0.00E+00
     1830 T=   885. E= -.22722264E+04 F= -.23215118E+04 EK= 0.49285E+02 SP= 0.00E+00 SK= 0.00E+00
     1840 T=   844. E= -.22722267E+04 F= -.23192296E+04 EK= 0.47003E+02 SP= 0.00E+00 SK= 0.00E+00
     1850 T=   799. E= -.22722298E+04 F= -.23167579E+04 EK= 0.44528E+02 SP= 0.00E+00 SK= 0.00E+00
     1860 T=   803. E= -.22722350E+04 F= -.23169893E+04 EK= 0.44754E+02 SP= 0.00E+00 SK= 0.00E+00
     1870 T=   854. E= -.22722344E+04 F= -.23198167E+04 EK= 0.47582E+02 SP= 0.00E+00 SK= 0.00E+00
     1880 T=   895. E= -.22722403E+04 F= -.23221062E+04 EK= 0.49866E+02 SP= 0.00E+00 SK= 0.00E+00
     1890 T=   888. E= -.22722437E+04 F= -.23217006E+04 EK= 0.49457E+02 SP= 0.00E+00 SK= 0.00E+00
     1900 T=   846. E= -.22722477E+04 F= -.23194055E+04 EK= 0.47158E+02 SP= 0.00E+00 SK= 0.00E+00
     1910 T=   801. E= -.22722413E+04 F= -.23168921E+04 EK= 0.44651E+02 SP= 0.00E+00 SK= 0.00E+00
     1920 T=   800. E= -.22722436E+04 F= -.23167901E+04 EK= 0.44546E+02 SP= 0.00E+00 SK= 0.00E+00
     1930 T=   863. E= -.22722464E+04 F= -.23203129E+04 EK= 0.48067E+02 SP= 0.00E+00 SK= 0.00E+00
     1940 T=   924. E= -.22722539E+04 F= -.23237590E+04 EK= 0.51505E+02 SP= 0.00E+00 SK= 0.00E+00
     1950 T=   926. E= -.22722511E+04 F= -.23238431E+04 EK= 0.51592E+02 SP= 0.00E+00 SK= 0.00E+00
     1960 T=   886. E= -.22722480E+04 F= -.23216138E+04 EK= 0.49366E+02 SP= 0.00E+00 SK= 0.00E+00
     1970 T=   857. E= -.22722407E+04 F= -.23199602E+04 EK= 0.47719E+02 SP= 0.00E+00 SK= 0.00E+00
     1980 T=   866. E= -.22722436E+04 F= -.23204673E+04 EK= 0.48224E+02 SP= 0.00E+00 SK= 0.00E+00
     1990 T=   895. E= -.22722463E+04 F= -.23220826E+04 EK= 0.49836E+02 SP= 0.00E+00 SK= 0.00E+00
     2000 T=   901. E= -.22722460E+04 F= -.23224143E+04 EK= 0.50168E+02 SP= 0.00E+00 SK= 0.00E+00
     2010 T=   877. E= -.22722372E+04 F= -.23210784E+04 EK= 0.48841E+02 SP= 0.00E+00 SK= 0.00E+00
     2020 T=   849. E= -.22722362E+04 F= -.23195405E+04 EK= 0.47304E+02 SP= 0.00E+00 SK= 0.00E+00
Randomizing velocities, T =   970.
     2030 T=   988. E= -.22652271E+04 F= -.23202488E+04 EK= 0.55022E+02 SP= 0.00E+00 SK= 0.00E+00
     2040 T=   973. E= -.22652242E+04 F= -.23194560E+04 EK= 0.54232E+02 SP= 0.00E+00 SK= 0.00E+00
     2050 T=   935. E= -.22652197E+04 F= -.23173162E+04 EK= 0.52097E+02 SP= 0.00E+00 SK= 0.00E+00
     2060 T=   918. E= -.22652160E+04 F= -.23163721E+04 EK= 0.51156E+02 SP= 0.00E+00 SK= 0.00E+00
     2070 T=   937. E= -.22652213E+04 F= -.23174431E+04 EK= 0.52222E+02 SP= 0.00E+00 SK= 0.00E+00
     2080 T=   951. E= -.22652226E+04 F= -.23182140E+04 EK= 0.52991E+02 SP= 0.00E+00 SK= 0.00E+00
     2090 T=   935. E= -.22652263E+04 F= -.23173190E+04 EK= 0.52093E+02 SP= 0.00E+00 SK= 0.00E+00
     2100 T=   918. E= -.22652270E+04 F= -.23163593E+04 EK= 0.51132E+02 SP= 0.00E+00 SK= 0.00E+00
     2110 T=   909. E= -.22652249E+04 F= -.23158933E+04 EK= 0.50668E+02 SP= 0.00E+00 SK= 0.00E+00
     2120 T=   913. E= -.22652195E+04 F= -.23160732E+04 EK= 0.50854E+02 SP= 0.00E+00 SK= 0.00E+00
     2130 T=   935. E= -.22652207E+04 F= -.23173271E+04 EK= 0.52106E+02 SP= 0.00E+00 SK= 0.00E+00
     2140 T=   957. E= -.22652175E+04 F= -.23185393E+04 EK= 0.53322E+02 SP= 0.00E+00 SK= 0.00E+00
     2150 T=   975. E= -.22652272E+04 F= -.23195448E+04 EK= 0.54318E+02 SP= 0.00E+00 SK= 0.00E+00
     2160 T=   980. E= -.22652253E+04 F= -.23198287E+04 EK= 0.54603E+02 SP= 0.00E+00 SK= 0.00E+00
     2170 T=   959. E= -.22652197E+04 F= -.23186693E+04 EK= 0.53450E+02 SP= 0.00E+00 SK= 0.00E+00
     2180 T=   930. E= -.22652187E+04 F= -.23170137E+04 EK= 0.51795E+02 SP= 0.00E+00 SK= 0.00E+00
     2190 T=   908. E= -.22652226E+04 F= -.23158211E+04 EK= 0.50599E+02 SP= 0.00E+00 SK= 0.00E+00
     2200 T=   896. E= -.22652218E+04 F= -.23151601E+04 EK= 0.49938E+02 SP= 0.00E+00 SK= 0.00E+00
     2210 T=   896. E= -.22652217E+04 F= -.23151542E+04 EK= 0.49933E+02 SP= 0.00E+00 SK= 0.00E+00
     2220 T=   917. E= -.22652201E+04 F= -.23163065E+04 EK= 0.51086E+02 SP= 0.00E+00 SK= 0.00E+00
     2230 T=   940. E= -.22652166E+04 F= -.23176128E+04 EK= 0.52396E+02 SP= 0.00E+00 SK= 0.00E+00
     2240 T=   966. E= -.22652120E+04 F= -.23190486E+04 EK= 0.53837E+02 SP= 0.00E+00 SK= 0.00E+00
     2250 T=   981. E= -.22652067E+04 F= -.23198664E+04 EK= 0.54660E+02 SP= 0.00E+00 SK= 0.00E+00
     2260 T=   966. E= -.22652135E+04 F= -.23190263E+04 EK= 0.53813E+02 SP= 0.00E+00 SK= 0.00E+00
     2270 T=   934. E= -.22652115E+04 F= -.23172606E+04 EK= 0.52049E+02 SP= 0.00E+00 SK= 0.00E+00
     2280 T=   916. E= -.22652106E+04 F= -.23162464E+04 EK= 0.51036E+02 SP= 0.00E+00 SK= 0.00E+00
     2290 T=   918. E= -.22652082E+04 F= -.23163754E+04 EK= 0.51167E+02 SP= 0.00E+00 SK= 0.00E+00
     2300 T=   913. E= -.22652038E+04 F= -.23160814E+04 EK= 0.50878E+02 SP= 0.00E+00 SK= 0.00E+00
     2310 T=   890. E= -.22651973E+04 F= -.23147638E+04 EK= 0.49566E+02 SP= 0.00E+00 SK= 0.00E+00
     2320 T=   900. E= -.22651921E+04 F= -.23153228E+04 EK= 0.50131E+02 SP= 0.00E+00 SK= 0.00E+00
     2330 T=   955. E= -.22651979E+04 F= -.23184299E+04 EK= 0.53232E+02 SP= 0.00E+00 SK= 0.00E+00
     2340 T=   989. E= -.22651942E+04 F= -.23203040E+04 EK= 0.55110E+02 SP= 0.00E+00 SK= 0.00E+00
     2350 T=   965. E= -.22651935E+04 F= -.23189506E+04 EK= 0.53757E+02 SP= 0.00E+00 SK= 0.00E+00
     2360 T=   920. E= -.22651945E+04 F= -.23164285E+04 EK= 0.51234E+02 SP= 0.00E+00 SK= 0.00E+00
     2370 T=   900. E= -.22651965E+04 F= -.23153318E+04 EK= 0.50135E+02 SP= 0.00E+00 SK= 0.00E+00
     2380 T=   904. E= -.22651971E+04 F= -.23155620E+04 EK= 0.50365E+02 SP= 0.00E+00 SK= 0.00E+00
     2390 T=   898. E= -.22652033E+04 F= -.23152344E+04 EK= 0.50031E+02 SP= 0.00E+00 SK= 0.00E+00
     2400 T=   885. E= -.22651978E+04 F= -.23144977E+04 EK= 0.49300E+02 SP= 0.00E+00 SK= 0.00E+00
     2410 T=   885. E= -.22651991E+04 F= -.23145182E+04 EK= 0.49319E+02 SP= 0.00E+00 SK= 0.00E+00
     2420 T=   910. E= -.22652021E+04 F= -.23159241E+04 EK= 0.50722E+02 SP= 0.00E+00 SK= 0.00E+00
     2430 T=   943. E= -.22652031E+04 F= -.23177135E+04 EK= 0.52510E+02 SP= 0.00E+00 SK= 0.00E+00
     2440 T=   955. E= -.22652084E+04 F= -.23184118E+04 EK= 0.53203E+02 SP= 0.00E+00 SK= 0.00E+00
     2450 T=   959. E= -.22652082E+04 F= -.23186286E+04 EK= 0.53420E+02 SP= 0.00E+00 SK= 0.00E+00
     2460 T=   963. E= -.22652116E+04 F= -.23188796E+04 EK= 0.53668E+02 SP= 0.00E+00 SK= 0.00E+00
     2470 T=   958. E= -.22652133E+04 F= -.23185839E+04 EK= 0.53371E+02 SP= 0.00E+00 SK= 0.00E+00
     2480 T=   954. E= -.22652155E+04 F= -.23183798E+04 EK= 0.53164E+02 SP= 0.00E+00 SK= 0.00E+00
     2490 T=   954. E= -.22652143E+04 F= -.23183854E+04 EK= 0.53171E+02 SP= 0.00E+00 SK= 0.00E+00
     2500 T=   951. E= -.22652070E+04 F= -.23181800E+04 EK= 0.52973E+02 SP= 0.00E+00 SK= 0.00E+00
     2510 T=   937. E= -.22652111E+04 F= -.23173923E+04 EK= 0.52181E+02 SP= 0.00E+00 SK= 0.00E+00
     2520 T=   925. E= -.22652078E+04 F= -.23167406E+04 EK= 0.51533E+02 SP= 0.00E+00 SK= 0.00E+00
     2530 T=   925. E= -.22652131E+04 F= -.23167215E+04 EK= 0.51508E+02 SP= 0.00E+00 SK= 0.00E+00
     2540 T=   936. E= -.22652146E+04 F= -.23173526E+04 EK= 0.52138E+02 SP= 0.00E+00 SK= 0.00E+00
     2550 T=   944. E= -.22652172E+04 F= -.23178052E+04 EK= 0.52588E+02 SP= 0.00E+00 SK= 0.00E+00
     2560 T=   956. E= -.22652180E+04 F= -.23184542E+04 EK= 0.53236E+02 SP= 0.00E+00 SK= 0.00E+00
     2570 T=   966. E= -.22652185E+04 F= -.23190138E+04 EK= 0.53795E+02 SP= 0.00E+00 SK= 0.00E+00
     2580 T=   956. E= -.22652145E+04 F= -.23184770E+04 EK= 0.53262E+02 SP= 0.00E+00 SK= 0.00E+00
     2590 T=   936. E= -.22652149E+04 F= -.23173476E+04 EK= 0.52133E+02 SP= 0.00E+00 SK= 0.00E+00
     2600 T=   932. E= -.22652168E+04 F= -.23171178E+04 EK= 0.51901E+02 SP= 0.00E+00 SK= 0.00E+00
     2610 T=   935. E= -.22652116E+04 F= -.23173150E+04 EK= 0.52103E+02 SP= 0.00E+00 SK= 0.00E+00
     2620 T=   928. E= -.22652093E+04 F= -.23168891E+04 EK= 0.51680E+02 SP= 0.00E+00 SK= 0.00E+00
     2630 T=   927. E= -.22652055E+04 F= -.23168330E+04 EK= 0.51628E+02 SP= 0.00E+00 SK= 0.00E+00
     2640 T=   940. E= -.22652024E+04 F= -.23175483E+04 EK= 0.52346E+02 SP= 0.00E+00 SK= 0.00E+00
     2650 T=   943. E= -.22652038E+04 F= -.23177583E+04 EK= 0.52554E+02 SP= 0.00E+00 SK= 0.00E+00
     2660 T=   932. E= -.22651999E+04 F= -.23171369E+04 EK= 0.51937E+02 SP= 0.00E+00 SK= 0.00E+00
     2670 T=   924. E= -.22651981E+04 F= -.23166686E+04 EK= 0.51471E+02 SP= 0.00E+00 SK= 0.00E+00
     2680 T=   912. E= -.22651933E+04 F= -.23159968E+04 EK= 0.50803E+02 SP= 0.00E+00 SK= 0.00E+00
     2690 T=   912. E= -.22651909E+04 F= -.23160117E+04 EK= 0.50821E+02 SP= 0.00E+00 SK= 0.00E+00
     2700 T=   934. E= -.22651898E+04 F= -.23172128E+04 EK= 0.52023E+02 SP= 0.00E+00 SK= 0.00E+00
     2710 T=   956. E= -.22651906E+04 F= -.23184430E+04 EK= 0.53252E+02 SP= 0.00E+00 SK= 0.00E+00
     2720 T=   969. E= -.22651933E+04 F= -.23191984E+04 EK= 0.54005E+02 SP= 0.00E+00 SK= 0.00E+00
     2730 T=   971. E= -.22652018E+04 F= -.23192734E+04 EK= 0.54072E+02 SP= 0.00E+00 SK= 0.00E+00
     2740 T=   943. E= -.22651987E+04 F= -.23177258E+04 EK= 0.52527E+02 SP= 0.00E+00 SK= 0.00E+00
     2750 T=   911. E= -.22651956E+04 F= -.23159446E+04 EK= 0.50749E+02 SP= 0.00E+00 SK= 0.00E+00
     2760 T=   904. E= -.22651890E+04 F= -.23155686E+04 EK= 0.50380E+02 SP= 0.00E+00 SK= 0.00E+00
     2770 T=   918. E= -.22651842E+04 F= -.23163205E+04 EK= 0.51136E+02 SP= 0.00E+00 SK= 0.00E+00
     2780 T=   926. E= -.22651898E+04 F= -.23167868E+04 EK= 0.51597E+02 SP= 0.00E+00 SK= 0.00E+00
     2790 T=   908. E= -.22651886E+04 F= -.23157551E+04 EK= 0.50567E+02 SP= 0.00E+00 SK= 0.00E+00
     2800 T=   884. E= -.22651830E+04 F= -.23144141E+04 EK= 0.49231E+02 SP= 0.00E+00 SK= 0.00E+00
     2810 T=   891. E= -.22651855E+04 F= -.23148002E+04 EK= 0.49615E+02 SP= 0.00E+00 SK= 0.00E+00
     2820 T=   920. E= -.22651870E+04 F= -.23164469E+04 EK= 0.51260E+02 SP= 0.00E+00 SK= 0.00E+00
     2830 T=   936. E= -.22651833E+04 F= -.23173047E+04 EK= 0.52121E+02 SP= 0.00E+00 SK= 0.00E+00
     2840 T=   937. E= -.22651818E+04 F= -.23173631E+04 EK= 0.52181E+02 SP= 0.00E+00 SK= 0.00E+00
     2850 T=   937. E= -.22651810E+04 F= -.23173715E+04 EK= 0.52190E+02 SP= 0.00E+00 SK= 0.00E+00
     2860 T=   935. E= -.22651788E+04 F= -.23172921E+04 EK= 0.52113E+02 SP= 0.00E+00 SK= 0.00E+00
     2870 T=   944. E= -.22651820E+04 F= -.23177556E+04 EK= 0.52574E+02 SP= 0.00E+00 SK= 0.00E+00
     2880 T=   969. E= -.22651842E+04 F= -.23191702E+04 EK= 0.53986E+02 SP= 0.00E+00 SK= 0.00E+00
     2890 T=   977. E= -.22651835E+04 F= -.23196029E+04 EK= 0.54419E+02 SP= 0.00E+00 SK= 0.00E+00
     2900 T=   952. E= -.22651820E+04 F= -.23181941E+04 EK= 0.53012E+02 SP= 0.00E+00 SK= 0.00E+00
     2910 T=   934. E= -.22651794E+04 F= -.23171961E+04 EK= 0.52017E+02 SP= 0.00E+00 SK= 0.00E+00
     2920 T=   933. E= -.22651804E+04 F= -.23171502E+04 EK= 0.51970E+02 SP= 0.00E+00 SK= 0.00E+00
     2930 T=   928. E= -.22651822E+04 F= -.23168901E+04 EK= 0.51708E+02 SP= 0.00E+00 SK= 0.00E+00
     2940 T=   924. E= -.22651839E+04 F= -.23166873E+04 EK= 0.51503E+02 SP= 0.00E+00 SK= 0.00E+00
     2950 T=   926. E= -.22651828E+04 F= -.23167797E+04 EK= 0.51597E+02 SP= 0.00E+00 SK= 0.00E+00
     2960 T=   933. E= -.22651742E+04 F= -.23171734E+04 EK= 0.51999E+02 SP= 0.00E+00 SK= 0.00E+00
     2970 T=   944. E= -.22651723E+04 F= -.23177746E+04 EK= 0.52602E+02 SP= 0.00E+00 SK= 0.00E+00
     2980 T=   953. E= -.22651674E+04 F= -.23182648E+04 EK= 0.53097E+02 SP= 0.00E+00 SK= 0.00E+00
     2990 T=   956. E= -.22651663E+04 F= -.23184159E+04 EK= 0.53250E+02 SP= 0.00E+00 SK= 0.00E+00
     3000 T=   947. E= -.22651660E+04 F= -.23179234E+04 EK= 0.52757E+02 SP= 0.00E+00 SK= 0.00E+00
     3010 T=   927. E= -.22651666E+04 F= -.23168303E+04 EK= 0.51664E+02 SP= 0.00E+00 SK= 0.00E+00
     3020 T=   901. E= -.22651637E+04 F= -.23153748E+04 EK= 0.50211E+02 SP= 0.00E+00 SK= 0.00E+00
     3030 T=   886. E= -.22651609E+04 F= -.23144940E+04 EK= 0.49333E+02 SP= 0.00E+00 SK= 0.00E+00
     3040 T=   894. E= -.22651630E+04 F= -.23149946E+04 EK= 0.49832E+02 SP= 0.00E+00 SK= 0.00E+00
     3050 T=   908. E= -.22651621E+04 F= -.23157314E+04 EK= 0.50569E+02 SP= 0.00E+00 SK= 0.00E+00
     3060 T=   917. E= -.22651567E+04 F= -.23162353E+04 EK= 0.51079E+02 SP= 0.00E+00 SK= 0.00E+00
     3070 T=   929. E= -.22651541E+04 F= -.23169062E+04 EK= 0.51752E+02 SP= 0.00E+00 SK= 0.00E+00
     3080 T=   941. E= -.22651568E+04 F= -.23176025E+04 EK= 0.52446E+02 SP= 0.00E+00 SK= 0.00E+00
     3090 T=   945. E= -.22651581E+04 F= -.23178033E+04 EK= 0.52645E+02 SP= 0.00E+00 SK= 0.00E+00
     3100 T=   928. E= -.22651499E+04 F= -.23168483E+04 EK= 0.51698E+02 SP= 0.00E+00 SK= 0.00E+00
     3110 T=   909. E= -.22651484E+04 F= -.23157744E+04 EK= 0.50626E+02 SP= 0.00E+00 SK= 0.00E+00
     3120 T=   923. E= -.22651463E+04 F= -.23165706E+04 EK= 0.51424E+02 SP= 0.00E+00 SK= 0.00E+00
     3130 T=   940. E= -.22651454E+04 F= -.23175192E+04 EK= 0.52374E+02 SP= 0.00E+00 SK= 0.00E+00
     3140 T=   925. E= -.22651459E+04 F= -.23167028E+04 EK= 0.51557E+02 SP= 0.00E+00 SK= 0.00E+00
     3150 T=   901. E= -.22651496E+04 F= -.23153452E+04 EK= 0.50196E+02 SP= 0.00E+00 SK= 0.00E+00
     3160 T=   891. E= -.22651504E+04 F= -.23147718E+04 EK= 0.49621E+02 SP= 0.00E+00 SK= 0.00E+00
     3170 T=   902. E= -.22651465E+04 F= -.23154257E+04 EK= 0.50279E+02 SP= 0.00E+00 SK= 0.00E+00
     3180 T=   916. E= -.22651506E+04 F= -.23161938E+04 EK= 0.51043E+02 SP= 0.00E+00 SK= 0.00E+00
     3190 T=   909. E= -.22651503E+04 F= -.23158196E+04 EK= 0.50669E+02 SP= 0.00E+00 SK= 0.00E+00
     3200 T=   895. E= -.22651462E+04 F= -.23150304E+04 EK= 0.49884E+02 SP= 0.00E+00 SK= 0.00E+00
     3210 T=   899. E= -.22651467E+04 F= -.23152160E+04 EK= 0.50069E+02 SP= 0.00E+00 SK= 0.00E+00
     3220 T=   918. E= -.22651444E+04 F= -.23162640E+04 EK= 0.51120E+02 SP= 0.00E+00 SK= 0.00E+00
     3230 T=   938. E= -.22651349E+04 F= -.23173999E+04 EK= 0.52265E+02 SP= 0.00E+00 SK= 0.00E+00
     3240 T=   941. E= -.22651355E+04 F= -.23175405E+04 EK= 0.52405E+02 SP= 0.00E+00 SK= 0.00E+00
     3250 T=   944. E= -.22651303E+04 F= -.23177405E+04 EK= 0.52610E+02 SP= 0.00E+00 SK= 0.00E+00
     3260 T=   962. E= -.22651318E+04 F= -.23187117E+04 EK= 0.53580E+02 SP= 0.00E+00 SK= 0.00E+00
     3270 T=   949. E= -.22651335E+04 F= -.23179790E+04 EK= 0.52846E+02 SP= 0.00E+00 SK= 0.00E+00
     3280 T=   910. E= -.22651336E+04 F= -.23158511E+04 EK= 0.50717E+02 SP= 0.00E+00 SK= 0.00E+00
     3290 T=   913. E= -.22651341E+04 F= -.23160240E+04 EK= 0.50890E+02 SP= 0.00E+00 SK= 0.00E+00
     3300 T=   953. E= -.22651358E+04 F= -.23182196E+04 EK= 0.53084E+02 SP= 0.00E+00 SK= 0.00E+00
     3310 T=   975. E= -.22651372E+04 F= -.23194488E+04 EK= 0.54312E+02 SP= 0.00E+00 SK= 0.00E+00
     3320 T=   953. E= -.22651365E+04 F= -.23182372E+04 EK= 0.53101E+02 SP= 0.00E+00 SK= 0.00E+00
     3330 T=   911. E= -.22651347E+04 F= -.23159084E+04 EK= 0.50774E+02 SP= 0.00E+00 SK= 0.00E+00
     3340 T=   886. E= -.22651326E+04 F= -.23144883E+04 EK= 0.49356E+02 SP= 0.00E+00 SK= 0.00E+00
     3350 T=   889. E= -.22651274E+04 F= -.23146798E+04 EK= 0.49552E+02 SP= 0.00E+00 SK= 0.00E+00
Randomizing velocities, T =   970.
     3360 T=   977. E= -.22606811E+04 F= -.23151215E+04 EK= 0.54440E+02 SP= 0.00E+00 SK= 0.00E+00
     3370 T=   979. E= -.22606852E+04 F= -.23152536E+04 EK= 0.54568E+02 SP= 0.00E+00 SK= 0.00E+00
     3380 T=  1000. E= -.22606833E+04 F= -.23163873E+04 EK= 0.55704E+02 SP= 0.00E+00 SK= 0.00E+00
     3390 T=  1013. E= -.22606816E+04 F= -.23170910E+04 EK= 0.56409E+02 SP= 0.00E+00 SK= 0.00E+00
     3400 T=   994. E= -.22606832E+04 F= -.23160525E+04 EK= 0.55369E+02 SP= 0.00E+00 SK= 0.00E+00
     3410 T=   966. E= -.22606748E+04 F= -.23145127E+04 EK= 0.53838E+02 SP= 0.00E+00 SK= 0.00E+00
     3420 T=   958. E= -.22606768E+04 F= -.23140759E+04 EK= 0.53399E+02 SP= 0.00E+00 SK= 0.00E+00
     3430 T=   963. E= -.22606748E+04 F= -.23143221E+04 EK= 0.53647E+02 SP= 0.00E+00 SK= 0.00E+00
     3440 T=   956. E= -.22606734E+04 F= -.23139084E+04 EK= 0.53235E+02 SP= 0.00E+00 SK= 0.00E+00
     3450 T=   948. E= -.22606663E+04 F= -.23135028E+04 EK= 0.52836E+02 SP= 0.00E+00 SK= 0.00E+00
     3460 T=   967. E= -.22606667E+04 F= -.23145474E+04 EK= 0.53881E+02 SP= 0.00E+00 SK= 0.00E+00
     3470 T=   983. E= -.22606670E+04 F= -.23154229E+04 EK= 0.54756E+02 SP= 0.00E+00 SK= 0.00E+00
     3480 T=   971. E= -.22606655E+04 F= -.23147760E+04 EK= 0.54110E+02 SP= 0.00E+00 SK= 0.00E+00
     3490 T=   965. E= -.22606637E+04 F= -.23144430E+04 EK= 0.53779E+02 SP= 0.00E+00 SK= 0.00E+00
     3500 T=   976. E= -.22606609E+04 F= -.23150206E+04 EK= 0.54360E+02 SP= 0.00E+00 SK= 0.00E+00
     3510 T=   980. E= -.22606625E+04 F= -.23152534E+04 EK= 0.54591E+02 SP= 0.00E+00 SK= 0.00E+00
     3520 T=   968. E= -.22606624E+04 F= -.23146048E+04 EK= 0.53942E+02 SP= 0.00E+00 SK= 0.00E+00
     3530 T=   957. E= -.22606636E+04 F= -.23140010E+04 EK= 0.53337E+02 SP= 0.00E+00 SK= 0.00E+00
     3540 T=   958. E= -.22606646E+04 F= -.23140185E+04 EK= 0.53354E+02 SP= 0.00E+00 SK= 0.00E+00
     3550 T=   966. E= -.22606710E+04 F= -.23145055E+04 EK= 0.53835E+02 SP= 0.00E+00 SK= 0.00E+00
     3560 T=   968. E= -.22606755E+04 F= -.23146132E+04 EK= 0.53938E+02 SP= 0.00E+00 SK= 0.00E+00
     3570 T=   979. E= -.22606725E+04 F= -.23152364E+04 EK= 0.54564E+02 SP= 0.00E+00 SK= 0.00E+00
     3580 T=   984. E= -.22606743E+04 F= -.23155032E+04 EK= 0.54829E+02 SP= 0.00E+00 SK= 0.00E+00
     3590 T=   965. E= -.22606782E+04 F= -.23144193E+04 EK= 0.53741E+02 SP= 0.00E+00 SK= 0.00E+00
     3600 T=   948. E= -.22606831E+04 F= -.23134846E+04 EK= 0.52802E+02 SP= 0.00E+00 SK= 0.00E+00
     3610 T=   958. E= -.22606845E+04 F= -.23140439E+04 EK= 0.53359E+02 SP= 0.00E+00 SK= 0.00E+00
     3620 T=   995. E= -.22606875E+04 F= -.23161260E+04 EK= 0.55439E+02 SP= 0.00E+00 SK= 0.00E+00
     3630 T=  1013. E= -.22606851E+04 F= -.23171352E+04 EK= 0.56450E+02 SP= 0.00E+00 SK= 0.00E+00
     3640 T=  1007. E= -.22606848E+04 F= -.23167780E+04 EK= 0.56093E+02 SP= 0.00E+00 SK= 0.00E+00
     3650 T=  1001. E= -.22606937E+04 F= -.23164374E+04 EK= 0.55744E+02 SP= 0.00E+00 SK= 0.00E+00
     3660 T=   993. E= -.22606923E+04 F= -.23160204E+04 EK= 0.55328E+02 SP= 0.00E+00 SK= 0.00E+00
     3670 T=   978. E= -.22606964E+04 F= -.23151568E+04 EK= 0.54460E+02 SP= 0.00E+00 SK= 0.00E+00
     3680 T=   967. E= -.22606883E+04 F= -.23145718E+04 EK= 0.53883E+02 SP= 0.00E+00 SK= 0.00E+00
     3690 T=   958. E= -.22606930E+04 F= -.23140854E+04 EK= 0.53392E+02 SP= 0.00E+00 SK= 0.00E+00
     3700 T=   958. E= -.22606884E+04 F= -.23140689E+04 EK= 0.53380E+02 SP= 0.00E+00 SK= 0.00E+00
     3710 T=   962. E= -.22606899E+04 F= -.23142877E+04 EK= 0.53598E+02 SP= 0.00E+00 SK= 0.00E+00
     3720 T=   954. E= -.22606897E+04 F= -.23138394E+04 EK= 0.53150E+02 SP= 0.00E+00 SK= 0.00E+00
     3730 T=   943. E= -.22606900E+04 F= -.23132091E+04 EK= 0.52519E+02 SP= 0.00E+00 SK= 0.00E+00
     3740 T=   937. E= -.22606886E+04 F= -.23128956E+04 EK= 0.52207E+02 SP= 0.00E+00 SK= 0.00E+00
     3750 T=   944. E= -.22606898E+04 F= -.23132949E+04 EK= 0.52605E+02 SP= 0.00E+00 SK= 0.00E+00
     3760 T=   956. E= -.22606884E+04 F= -.23139463E+04 EK= 0.53258E+02 SP= 0.00E+00 SK= 0.00E+00
     3770 T=   968. E= -.22606899E+04 F= -.23146275E+04 EK= 0.53938E+02 SP= 0.00E+00 SK= 0.00E+00
     3780 T=   992. E= -.22606922E+04 F= -.23159392E+04 EK= 0.55247E+02 SP= 0.00E+00 SK= 0.00E+00
     3790 T=   990. E= -.22606891E+04 F= -.23158454E+04 EK= 0.55156E+02 SP= 0.00E+00 SK= 0.00E+00
     3800 T=   974. E= -.22606876E+04 F= -.23149520E+04 EK= 0.54264E+02 SP= 0.00E+00 SK= 0.00E+00
     3810 T=   978. E= -.22606879E+04 F= -.23151861E+04 EK= 0.54498E+02 SP= 0.00E+00 SK= 0.00E+00
     3820 T=   985. E= -.22606888E+04 F= -.23155584E+04 EK= 0.54870E+02 SP= 0.00E+00 SK= 0.00E+00
     3830 T=   971. E= -.22606868E+04 F= -.23148050E+04 EK= 0.54118E+02 SP= 0.00E+00 SK= 0.00E+00
     3840 T=   954. E= -.22606922E+04 F= -.23138214E+04 EK= 0.53129E+02 SP= 0.00E+00 SK= 0.00E+00
     3850 T=   960. E= -.22606966E+04 F= -.23141573E+04 EK= 0.53461E+02 SP= 0.00E+00 SK= 0.00E+00
     3860 T=   970. E= -.22606919E+04 F= -.23147276E+04 EK= 0.54036E+02 SP= 0.00E+00 SK= 0.00E+00
     3870 T=   968. E= -.22606905E+04 F= -.23146418E+04 EK= 0.53951E+02 SP= 0.00E+00 SK= 0.00E+00
     3880 T=   950. E= -.22606897E+04 F= -.23136417E+04 EK= 0.52952E+02 SP= 0.00E+00 SK= 0.00E+00
     3890 T=   950. E= -.22606908E+04 F= -.23135971E+04 EK= 0.52906E+02 SP= 0.00E+00 SK= 0.00E+00
     3900 T=   981. E= -.22606913E+04 F= -.23153360E+04 EK= 0.54645E+02 SP= 0.00E+00 SK= 0.00E+00
     3910 T=  1008. E= -.22606914E+04 F= -.23168218E+04 EK= 0.56130E+02 SP= 0.00E+00 SK= 0.00E+00
     3920 T=   993. E= -.22606909E+04 F= -.23159946E+04 EK= 0.55304E+02 SP= 0.00E+00 SK= 0.00E+00
     3930 T=   965. E= -.22606921E+04 F= -.23144585E+04 EK= 0.53766E+02 SP= 0.00E+00 SK= 0.00E+00
     3940 T=   973. E= -.22606953E+04 F= -.23148945E+04 EK= 0.54199E+02 SP= 0.00E+00 SK= 0.00E+00
     3950 T=   991. E= -.22606965E+04 F= -.23159227E+04 EK= 0.55226E+02 SP= 0.00E+00 SK= 0.00E+00
     3960 T=  1006. E= -.22606966E+04 F= -.23167606E+04 EK= 0.56064E+02 SP= 0.00E+00 SK= 0.00E+00
     3970 T=  1026. E= -.22606965E+04 F= -.23178705E+04 EK= 0.57174E+02 SP= 0.00E+00 SK= 0.00E+00
     3980 T=  1029. E= -.22606906E+04 F= -.23179933E+04 EK= 0.57303E+02 SP= 0.00E+00 SK= 0.00E+00
     3990 T=  1017. E= -.22606959E+04 F= -.23173571E+04 EK= 0.56661E+02 SP= 0.00E+00 SK= 0.00E+00
     4000 T=   985. E= -.22606972E+04 F= -.23155529E+04 EK= 0.54856E+02 SP= 0.00E+00 SK= 0.00E+00
     4010 T=   951. E= -.22606900E+04 F= -.23136838E+04 EK= 0.52994E+02 SP= 0.00E+00 SK= 0.00E+00
     4020 T=   951. E= -.22606914E+04 F= -.23136692E+04 EK= 0.52978E+02 SP= 0.00E+00 SK= 0.00E+00
     4030 T=   978. E= -.22606987E+04 F= -.23151784E+04 EK= 0.54480E+02 SP= 0.00E+00 SK= 0.00E+00
     4040 T=   990. E= -.22606984E+04 F= -.23158602E+04 EK= 0.55162E+02 SP= 0.00E+00 SK= 0.00E+00
     4050 T=   975. E= -.22607037E+04 F= -.23150368E+04 EK= 0.54333E+02 SP= 0.00E+00 SK= 0.00E+00
     4060 T=   964. E= -.22607043E+04 F= -.23143902E+04 EK= 0.53686E+02 SP= 0.00E+00 SK= 0.00E+00
     4070 T=   971. E= -.22607056E+04 F= -.23148005E+04 EK= 0.54095E+02 SP= 0.00E+00 SK= 0.00E+00
     4080 T=   981. E= -.22607033E+04 F= -.23153812E+04 EK= 0.54678E+02 SP= 0.00E+00 SK= 0.00E+00
     4090 T=   982. E= -.22607088E+04 F= -.23153908E+04 EK= 0.54682E+02 SP= 0.00E+00 SK= 0.00E+00
     4100 T=   986. E= -.22607085E+04 F= -.23156645E+04 EK= 0.54956E+02 SP= 0.00E+00 SK= 0.00E+00
     4110 T=   991. E= -.22607075E+04 F= -.23159411E+04 EK= 0.55234E+02 SP= 0.00E+00 SK= 0.00E+00
     4120 T=   992. E= -.22607114E+04 F= -.23160028E+04 EK= 0.55291E+02 SP= 0.00E+00 SK= 0.00E+00
     4130 T=  1011. E= -.22607056E+04 F= -.23170274E+04 EK= 0.56322E+02 SP= 0.00E+00 SK= 0.00E+00
     4140 T=  1024. E= -.22607066E+04 F= -.23177273E+04 EK= 0.57021E+02 SP= 0.00E+00 SK= 0.00E+00
     4150 T=   996. E= -.22607005E+04 F= -.23162146E+04 EK= 0.55514E+02 SP= 0.00E+00 SK= 0.00E+00
     4160 T=   955. E= -.22607008E+04 F= -.23139131E+04 EK= 0.53212E+02 SP= 0.00E+00 SK= 0.00E+00
     4170 T=   919. E= -.22607093E+04 F= -.23119134E+04 EK= 0.51204E+02 SP= 0.00E+00 SK= 0.00E+00
     4180 T=   919. E= -.22607139E+04 F= -.23119280E+04 EK= 0.51214E+02 SP= 0.00E+00 SK= 0.00E+00
     4190 T=   971. E= -.22607184E+04 F= -.23147956E+04 EK= 0.54077E+02 SP= 0.00E+00 SK= 0.00E+00
     4200 T=   998. E= -.22607225E+04 F= -.23163120E+04 EK= 0.55589E+02 SP= 0.00E+00 SK= 0.00E+00
     4210 T=   972. E= -.22607274E+04 F= -.23148711E+04 EK= 0.54144E+02 SP= 0.00E+00 SK= 0.00E+00
     4220 T=   936. E= -.22607356E+04 F= -.23128910E+04 EK= 0.52155E+02 SP= 0.00E+00 SK= 0.00E+00
     4230 T=   933. E= -.22607380E+04 F= -.23127419E+04 EK= 0.52004E+02 SP= 0.00E+00 SK= 0.00E+00
     4240 T=   976. E= -.22607383E+04 F= -.23151251E+04 EK= 0.54387E+02 SP= 0.00E+00 SK= 0.00E+00
     4250 T=  1015. E= -.22607395E+04 F= -.23172872E+04 EK= 0.56548E+02 SP= 0.00E+00 SK= 0.00E+00
     4260 T=  1012. E= -.22607396E+04 F= -.23171302E+04 EK= 0.56391E+02 SP= 0.00E+00 SK= 0.00E+00
     4270 T=   982. E= -.22607376E+04 F= -.23154402E+04 EK= 0.54703E+02 SP= 0.00E+00 SK= 0.00E+00
     4280 T=   949. E= -.22607386E+04 F= -.23135992E+04 EK= 0.52861E+02 SP= 0.00E+00 SK= 0.00E+00
     4290 T=   921. E= -.22607342E+04 F= -.23120402E+04 EK= 0.51306E+02 SP= 0.00E+00 SK= 0.00E+00
     4300 T=   911. E= -.22607305E+04 F= -.23114657E+04 EK= 0.50735E+02 SP= 0.00E+00 SK= 0.00E+00
     4310 T=   948. E= -.22607302E+04 F= -.23135657E+04 EK= 0.52836E+02 SP= 0.00E+00 SK= 0.00E+00
     4320 T=   989. E= -.22607287E+04 F= -.23158329E+04 EK= 0.55104E+02 SP= 0.00E+00 SK= 0.00E+00
     4330 T=  1001. E= -.22607334E+04 F= -.23164959E+04 EK= 0.55763E+02 SP= 0.00E+00 SK= 0.00E+00
     4340 T=  1021. E= -.22607333E+04 F= -.23176076E+04 EK= 0.56874E+02 SP= 0.00E+00 SK= 0.00E+00
     4350 T=  1034. E= -.22607345E+04 F= -.23183437E+04 EK= 0.57609E+02 SP= 0.00E+00 SK= 0.00E+00
     4360 T=  1009. E= -.22607318E+04 F= -.23169596E+04 EK= 0.56228E+02 SP= 0.00E+00 SK= 0.00E+00
     4370 T=   966. E= -.22607241E+04 F= -.23145667E+04 EK= 0.53843E+02 SP= 0.00E+00 SK= 0.00E+00
     4380 T=   955. E= -.22607246E+04 F= -.23139013E+04 EK= 0.53177E+02 SP= 0.00E+00 SK= 0.00E+00
     4390 T=   962. E= -.22607279E+04 F= -.23143324E+04 EK= 0.53604E+02 SP= 0.00E+00 SK= 0.00E+00
     4400 T=   951. E= -.22607307E+04 F= -.23137152E+04 EK= 0.52984E+02 SP= 0.00E+00 SK= 0.00E+00
     4410 T=   930. E= -.22607342E+04 F= -.23125446E+04 EK= 0.51810E+02 SP= 0.00E+00 SK= 0.00E+00
     4420 T=   905. E= -.22607368E+04 F= -.23111667E+04 EK= 0.50430E+02 SP= 0.00E+00 SK= 0.00E+00
     4430 T=   896. E= -.22607344E+04 F= -.23106607E+04 EK= 0.49926E+02 SP= 0.00E+00 SK= 0.00E+00
     4440 T=   923. E= -.22607337E+04 F= -.23121483E+04 EK= 0.51415E+02 SP= 0.00E+00 SK= 0.00E+00
     4450 T=   960. E= -.22607349E+04 F= -.23141913E+04 EK= 0.53456E+02 SP= 0.00E+00 SK= 0.00E+00
     4460 T=   984. E= -.22607326E+04 F= -.23155333E+04 EK= 0.54801E+02 SP= 0.00E+00 SK= 0.00E+00
     4470 T=   990. E= -.22607320E+04 F= -.23158787E+04 EK= 0.55147E+02 SP= 0.00E+00 SK= 0.00E+00
     4480 T=   999. E= -.22607294E+04 F= -.23163682E+04 EK= 0.55639E+02 SP= 0.00E+00 SK= 0.00E+00
     4490 T=  1013. E= -.22607296E+04 F= -.23171672E+04 EK= 0.56438E+02 SP= 0.00E+00 SK= 0.00E+00
     4500 T=  1010. E= -.22607276E+04 F= -.23169825E+04 EK= 0.56255E+02 SP= 0.00E+00 SK= 0.00E+00
     4510 T=   982. E= -.22607224E+04 F= -.23154326E+04 EK= 0.54710E+02 SP= 0.00E+00 SK= 0.00E+00
     4520 T=   974. E= -.22607267E+04 F= -.23149661E+04 EK= 0.54239E+02 SP= 0.00E+00 SK= 0.00E+00
     4530 T=   984. E= -.22607248E+04 F= -.23155358E+04 EK= 0.54811E+02 SP= 0.00E+00 SK= 0.00E+00
     4540 T=   986. E= -.22607266E+04 F= -.23156718E+04 EK= 0.54945E+02 SP= 0.00E+00 SK= 0.00E+00
     4550 T=   991. E= -.22607261E+04 F= -.23159624E+04 EK= 0.55236E+02 SP= 0.00E+00 SK= 0.00E+00
     4560 T=  1000. E= -.22607279E+04 F= -.23164216E+04 EK= 0.55694E+02 SP= 0.00E+00 SK= 0.00E+00
     4570 T=   992. E= -.22607256E+04 F= -.23159683E+04 EK= 0.55243E+02 SP= 0.00E+00 SK= 0.00E+00
     4580 T=   959. E= -.22607281E+04 F= -.23141559E+04 EK= 0.53428E+02 SP= 0.00E+00 SK= 0.00E+00
     4590 T=   938. E= -.22607219E+04 F= -.23129886E+04 EK= 0.52267E+02 SP= 0.00E+00 SK= 0.00E+00
     4600 T=   961. E= -.22607205E+04 F= -.23142406E+04 EK= 0.53520E+02 SP= 0.00E+00 SK= 0.00E+00
     4610 T=  1007. E= -.22607273E+04 F= -.23168463E+04 EK= 0.56119E+02 SP= 0.00E+00 SK= 0.00E+00
     4620 T=  1032. E= -.22607319E+04 F= -.23182087E+04 EK= 0.57477E+02 SP= 0.00E+00 SK= 0.00E+00
     4630 T=  1009. E= -.22607326E+04 F= -.23169562E+04 EK= 0.56224E+02 SP= 0.00E+00 SK= 0.00E+00
     4640 T=   970. E= -.22607349E+04 F= -.23147515E+04 EK= 0.54017E+02 SP= 0.00E+00 SK= 0.00E+00
     4650 T=   951. E= -.22607344E+04 F= -.23137151E+04 EK= 0.52981E+02 SP= 0.00E+00 SK= 0.00E+00
     4660 T=   954. E= -.22607293E+04 F= -.23138955E+04 EK= 0.53166E+02 SP= 0.00E+00 SK= 0.00E+00
Randomizing velocities, T =   970.
     4670 T=   981. E= -.22599538E+04 F= -.23146016E+04 EK= 0.54648E+02 SP= 0.00E+00 SK= 0.00E+00
     4680 T=  1001. E= -.22599541E+04 F= -.23157075E+04 EK= 0.55753E+02 SP= 0.00E+00 SK= 0.00E+00
     4690 T=  1022. E= -.22599456E+04 F= -.23168897E+04 EK= 0.56944E+02 SP= 0.00E+00 SK= 0.00E+00
     4700 T=  1037. E= -.22599483E+04 F= -.23177166E+04 EK= 0.57768E+02 SP= 0.00E+00 SK= 0.00E+00
     4710 T=  1035. E= -.22599508E+04 F= -.23175925E+04 EK= 0.57642E+02 SP= 0.00E+00 SK= 0.00E+00
     4720 T=  1006. E= -.22599500E+04 F= -.23159802E+04 EK= 0.56030E+02 SP= 0.00E+00 SK= 0.00E+00
     4730 T=   959. E= -.22599495E+04 F= -.23133792E+04 EK= 0.53430E+02 SP= 0.00E+00 SK= 0.00E+00
     4740 T=   934. E= -.22599467E+04 F= -.23119995E+04 EK= 0.52053E+02 SP= 0.00E+00 SK= 0.00E+00
     4750 T=   948. E= -.22599474E+04 F= -.23127687E+04 EK= 0.52821E+02 SP= 0.00E+00 SK= 0.00E+00
     4760 T=   958. E= -.22599474E+04 F= -.23132979E+04 EK= 0.53351E+02 SP= 0.00E+00 SK= 0.00E+00
     4770 T=   934. E= -.22599532E+04 F= -.23119667E+04 EK= 0.52013E+02 SP= 0.00E+00 SK= 0.00E+00
     4780 T=   912. E= -.22599485E+04 F= -.23107700E+04 EK= 0.50822E+02 SP= 0.00E+00 SK= 0.00E+00
     4790 T=   935. E= -.22599528E+04 F= -.23120491E+04 EK= 0.52096E+02 SP= 0.00E+00 SK= 0.00E+00
     4800 T=   983. E= -.22599535E+04 F= -.23146979E+04 EK= 0.54744E+02 SP= 0.00E+00 SK= 0.00E+00
     4810 T=  1028. E= -.22599532E+04 F= -.23172484E+04 EK= 0.57295E+02 SP= 0.00E+00 SK= 0.00E+00
     4820 T=  1046. E= -.22599580E+04 F= -.23182403E+04 EK= 0.58282E+02 SP= 0.00E+00 SK= 0.00E+00
Randomizing velocities, T =   970.
     4830 T=   968. E= -.22634280E+04 F= -.23173610E+04 EK= 0.53933E+02 SP= 0.00E+00 SK= 0.00E+00
     4840 T=   969. E= -.22634289E+04 F= -.23173926E+04 EK= 0.53964E+02 SP= 0.00E+00 SK= 0.00E+00
     4850 T=   957. E= -.22634252E+04 F= -.23167549E+04 EK= 0.53330E+02 SP= 0.00E+00 SK= 0.00E+00
     4860 T=   940. E= -.22634334E+04 F= -.23158070E+04 EK= 0.52374E+02 SP= 0.00E+00 SK= 0.00E+00
     4870 T=   922. E= -.22634376E+04 F= -.23147856E+04 EK= 0.51348E+02 SP= 0.00E+00 SK= 0.00E+00
     4880 T=   909. E= -.22634359E+04 F= -.23140661E+04 EK= 0.50630E+02 SP= 0.00E+00 SK= 0.00E+00
     4890 T=   908. E= -.22634395E+04 F= -.23140495E+04 EK= 0.50610E+02 SP= 0.00E+00 SK= 0.00E+00
     4900 T=   923. E= -.22634365E+04 F= -.23148316E+04 EK= 0.51395E+02 SP= 0.00E+00 SK= 0.00E+00
     4910 T=   949. E= -.22634398E+04 F= -.23163033E+04 EK= 0.52863E+02 SP= 0.00E+00 SK= 0.00E+00
     4920 T=   965. E= -.22634334E+04 F= -.23172205E+04 EK= 0.53787E+02 SP= 0.00E+00 SK= 0.00E+00
     4930 T=   974. E= -.22634295E+04 F= -.23176944E+04 EK= 0.54265E+02 SP= 0.00E+00 SK= 0.00E+00
     4940 T=   989. E= -.22634297E+04 F= -.23185271E+04 EK= 0.55097E+02 SP= 0.00E+00 SK= 0.00E+00
     4950 T=   998. E= -.22634296E+04 F= -.23190514E+04 EK= 0.55622E+02 SP= 0.00E+00 SK= 0.00E+00
     4960 T=   994. E= -.22634300E+04 F= -.23188184E+04 EK= 0.55388E+02 SP= 0.00E+00 SK= 0.00E+00
     4970 T=   983. E= -.22634234E+04 F= -.23181994E+04 EK= 0.54776E+02 SP= 0.00E+00 SK= 0.00E+00
     4980 T=   977. E= -.22634258E+04 F= -.23178679E+04 EK= 0.54442E+02 SP= 0.00E+00 SK= 0.00E+00
     4990 T=   964. E= -.22634276E+04 F= -.23171312E+04 EK= 0.53704E+02 SP= 0.00E+00 SK= 0.00E+00
     5000 T=   934. E= -.22634301E+04 F= -.23154696E+04 EK= 0.52039E+02 SP= 0.00E+00 SK= 0.00E+00
     5010 T=   899. E= -.22634322E+04 F= -.23134979E+04 EK= 0.50066E+02 SP= 0.00E+00 SK= 0.00E+00
     5020 T=   893. E= -.22634355E+04 F= -.23131724E+04 EK= 0.49737E+02 SP= 0.00E+00 SK= 0.00E+00
     5030 T=   926. E= -.22634379E+04 F= -.23150466E+04 EK= 0.51609E+02 SP= 0.00E+00 SK= 0.00E+00
     5040 T=   959. E= -.22634332E+04 F= -.23168667E+04 EK= 0.53434E+02 SP= 0.00E+00 SK= 0.00E+00
     5050 T=   963. E= -.22634234E+04 F= -.23170955E+04 EK= 0.53672E+02 SP= 0.00E+00 SK= 0.00E+00
     5060 T=   963. E= -.22634146E+04 F= -.23170723E+04 EK= 0.53658E+02 SP= 0.00E+00 SK= 0.00E+00
     5070 T=   966. E= -.22634141E+04 F= -.23172266E+04 EK= 0.53813E+02 SP= 0.00E+00 SK= 0.00E+00
Randomizing velocities, T =   970.
     5080 T=   974. E= -.22629526E+04 F= -.23172158E+04 EK= 0.54263E+02 SP= 0.00E+00 SK= 0.00E+00
     5090 T=   968. E= -.22629556E+04 F= -.23169106E+04 EK= 0.53955E+02 SP= 0.00E+00 SK= 0.00E+00
     5100 T=   952. E= -.22629581E+04 F= -.23160190E+04 EK= 0.53061E+02 SP= 0.00E+00 SK= 0.00E+00
     5110 T=   938. E= -.22629563E+04 F= -.23152119E+04 EK= 0.52256E+02 SP= 0.00E+00 SK= 0.00E+00
     5120 T=   932. E= -.22629581E+04 F= -.23148724E+04 EK= 0.51914E+02 SP= 0.00E+00 SK= 0.00E+00
     5130 T=   932. E= -.22629574E+04 F= -.23148669E+04 EK= 0.51910E+02 SP= 0.00E+00 SK= 0.00E+00
     5140 T=   938. E= -.22629571E+04 F= -.23152143E+04 EK= 0.52257E+02 SP= 0.00E+00 SK= 0.00E+00
     5150 T=   950. E= -.22629554E+04 F= -.23158621E+04 EK= 0.52907E+02 SP= 0.00E+00 SK= 0.00E+00
     5160 T=   953. E= -.22629575E+04 F= -.23160469E+04 EK= 0.53089E+02 SP= 0.00E+00 SK= 0.00E+00
     5170 T=   940. E= -.22629643E+04 F= -.23153186E+04 EK= 0.52354E+02 SP= 0.00E+00 SK= 0.00E+00
     5180 T=   930. E= -.22629612E+04 F= -.23147620E+04 EK= 0.51801E+02 SP= 0.00E+00 SK= 0.00E+00
     5190 T=   945. E= -.22629613E+04 F= -.23156345E+04 EK= 0.52673E+02 SP= 0.00E+00 SK= 0.00E+00
     5200 T=   962. E= -.22629632E+04 F= -.23165394E+04 EK= 0.53576E+02 SP= 0.00E+00 SK= 0.00E+00
     5210 T=   953. E= -.22629651E+04 F= -.23160393E+04 EK= 0.53074E+02 SP= 0.00E+00 SK= 0.00E+00
     5220 T=   928. E= -.22629645E+04 F= -.23146900E+04 EK= 0.51725E+02 SP= 0.00E+00 SK= 0.00E+00
     5230 T=   926. E= -.22629588E+04 F= -.23145286E+04 EK= 0.51570E+02 SP= 0.00E+00 SK= 0.00E+00
     5240 T=   957. E= -.22629600E+04 F= -.23162889E+04 EK= 0.53329E+02 SP= 0.00E+00 SK= 0.00E+00
     5250 T=   987. E= -.22629602E+04 F= -.23179629E+04 EK= 0.55003E+02 SP= 0.00E+00 SK= 0.00E+00
     5260 T=   982. E= -.22629619E+04 F= -.23176702E+04 EK= 0.54708E+02 SP= 0.00E+00 SK= 0.00E+00
     5270 T=   944. E= -.22629596E+04 F= -.23155624E+04 EK= 0.52603E+02 SP= 0.00E+00 SK= 0.00E+00
     5280 T=   920. E= -.22629555E+04 F= -.23142074E+04 EK= 0.51252E+02 SP= 0.00E+00 SK= 0.00E+00
     5290 T=   947. E= -.22629615E+04 F= -.23156967E+04 EK= 0.52735E+02 SP= 0.00E+00 SK= 0.00E+00
Randomizing velocities, T =   970.
     5300 T=   974. E= -.22630636E+04 F= -.23173069E+04 EK= 0.54243E+02 SP= 0.00E+00 SK= 0.00E+00
     5310 T=   980. E= -.22630683E+04 F= -.23176432E+04 EK= 0.54575E+02 SP= 0.00E+00 SK= 0.00E+00
     5320 T=   953. E= -.22630692E+04 F= -.23161575E+04 EK= 0.53088E+02 SP= 0.00E+00 SK= 0.00E+00
     5330 T=   929. E= -.22630655E+04 F= -.23148482E+04 EK= 0.51783E+02 SP= 0.00E+00 SK= 0.00E+00
     5340 T=   944. E= -.22630620E+04 F= -.23156740E+04 EK= 0.52612E+02 SP= 0.00E+00 SK= 0.00E+00
     5350 T=   976. E= -.22630610E+04 F= -.23174626E+04 EK= 0.54402E+02 SP= 0.00E+00 SK= 0.00E+00
     5360 T=   983. E= -.22630575E+04 F= -.23178104E+04 EK= 0.54753E+02 SP= 0.00E+00 SK= 0.00E+00
     5370 T=   975. E= -.22630630E+04 F= -.23173607E+04 EK= 0.54298E+02 SP= 0.00E+00 SK= 0.00E+00
     5380 T=   954. E= -.22630689E+04 F= -.23162021E+04 EK= 0.53133E+02 SP= 0.00E+00 SK= 0.00E+00
     5390 T=   927. E= -.22630681E+04 F= -.23147357E+04 EK= 0.51668E+02 SP= 0.00E+00 SK= 0.00E+00
     5400 T=   914. E= -.22630669E+04 F= -.23139878E+04 EK= 0.50921E+02 SP= 0.00E+00 SK= 0.00E+00
     5410 T=   932. E= -.22630677E+04 F= -.23150030E+04 EK= 0.51935E+02 SP= 0.00E+00 SK= 0.00E+00
Randomizing velocities, T =   970.
     5420 T=   977. E= -.22614015E+04 F= -.23158272E+04 EK= 0.54426E+02 SP= 0.00E+00 SK= 0.00E+00
     5430 T=   999. E= -.22614056E+04 F= -.23170718E+04 EK= 0.55666E+02 SP= 0.00E+00 SK= 0.00E+00
     5440 T=  1002. E= -.22614067E+04 F= -.23172421E+04 EK= 0.55835E+02 SP= 0.00E+00 SK= 0.00E+00
     5450 T=   976. E= -.22614054E+04 F= -.23157891E+04 EK= 0.54384E+02 SP= 0.00E+00 SK= 0.00E+00
     5460 T=   946. E= -.22614064E+04 F= -.23141339E+04 EK= 0.52727E+02 SP= 0.00E+00 SK= 0.00E+00
     5470 T=   946. E= -.22614137E+04 F= -.23140969E+04 EK= 0.52683E+02 SP= 0.00E+00 SK= 0.00E+00
     5480 T=   963. E= -.22614204E+04 F= -.23150856E+04 EK= 0.53665E+02 SP= 0.00E+00 SK= 0.00E+00
     5490 T=   961. E= -.22614171E+04 F= -.23149686E+04 EK= 0.53551E+02 SP= 0.00E+00 SK= 0.00E+00
     5500 T=   948. E= -.22614148E+04 F= -.23142183E+04 EK= 0.52803E+02 SP= 0.00E+00 SK= 0.00E+00
     5510 T=   955. E= -.22614149E+04 F= -.23146241E+04 EK= 0.53209E+02 SP= 0.00E+00 SK= 0.00E+00
     5520 T=   973. E= -.22614193E+04 F= -.23156512E+04 EK= 0.54232E+02 SP= 0.00E+00 SK= 0.00E+00
     5530 T=   982. E= -.22614231E+04 F= -.23161054E+04 EK= 0.54682E+02 SP= 0.00E+00 SK= 0.00E+00
     5540 T=   986. E= -.22614160E+04 F= -.23163690E+04 EK= 0.54953E+02 SP= 0.00E+00 SK= 0.00E+00
     5550 T=   990. E= -.22614186E+04 F= -.23165869E+04 EK= 0.55168E+02 SP= 0.00E+00 SK= 0.00E+00
     5560 T=  1000. E= -.22614161E+04 F= -.23171343E+04 EK= 0.55718E+02 SP= 0.00E+00 SK= 0.00E+00
     5570 T=  1005. E= -.22614148E+04 F= -.23174249E+04 EK= 0.56010E+02 SP= 0.00E+00 SK= 0.00E+00
     5580 T=   991. E= -.22614051E+04 F= -.23166043E+04 EK= 0.55199E+02 SP= 0.00E+00 SK= 0.00E+00
     5590 T=   972. E= -.22614078E+04 F= -.23155715E+04 EK= 0.54164E+02 SP= 0.00E+00 SK= 0.00E+00
     5600 T=   961. E= -.22613997E+04 F= -.23149256E+04 EK= 0.53526E+02 SP= 0.00E+00 SK= 0.00E+00
     5610 T=   950. E= -.22613935E+04 F= -.23143022E+04 EK= 0.52909E+02 SP= 0.00E+00 SK= 0.00E+00
     5620 T=   947. E= -.22613939E+04 F= -.23141733E+04 EK= 0.52779E+02 SP= 0.00E+00 SK= 0.00E+00
     5630 T=   952. E= -.22613923E+04 F= -.23144364E+04 EK= 0.53044E+02 SP= 0.00E+00 SK= 0.00E+00
     5640 T=   972. E= -.22613865E+04 F= -.23155413E+04 EK= 0.54155E+02 SP= 0.00E+00 SK= 0.00E+00
     5650 T=   982. E= -.22613923E+04 F= -.23161103E+04 EK= 0.54718E+02 SP= 0.00E+00 SK= 0.00E+00
     5660 T=   964. E= -.22613924E+04 F= -.23150976E+04 EK= 0.53705E+02 SP= 0.00E+00 SK= 0.00E+00
     5670 T=   941. E= -.22613880E+04 F= -.23138347E+04 EK= 0.52447E+02 SP= 0.00E+00 SK= 0.00E+00
     5680 T=   945. E= -.22613894E+04 F= -.23140189E+04 EK= 0.52630E+02 SP= 0.00E+00 SK= 0.00E+00
     5690 T=   962. E= -.22613915E+04 F= -.23149839E+04 EK= 0.53592E+02 SP= 0.00E+00 SK= 0.00E+00
     5700 T=   965. E= -.22613957E+04 F= -.23151319E+04 EK= 0.53736E+02 SP= 0.00E+00 SK= 0.00E+00
     5710 T=   964. E= -.22613977E+04 F= -.23151167E+04 EK= 0.53719E+02 SP= 0.00E+00 SK= 0.00E+00
     5720 T=   980. E= -.22613970E+04 F= -.23159863E+04 EK= 0.54589E+02 SP= 0.00E+00 SK= 0.00E+00
     5730 T=   983. E= -.22613962E+04 F= -.23161808E+04 EK= 0.54785E+02 SP= 0.00E+00 SK= 0.00E+00
     5740 T=   958. E= -.22613884E+04 F= -.23147501E+04 EK= 0.53362E+02 SP= 0.00E+00 SK= 0.00E+00
     5750 T=   932. E= -.22613871E+04 F= -.23132855E+04 EK= 0.51898E+02 SP= 0.00E+00 SK= 0.00E+00
     5760 T=   939. E= -.22613911E+04 F= -.23137158E+04 EK= 0.52325E+02 SP= 0.00E+00 SK= 0.00E+00
     5770 T=   942. E= -.22613906E+04 F= -.23138695E+04 EK= 0.52479E+02 SP= 0.00E+00 SK= 0.00E+00
     5780 T=   932. E= -.22613852E+04 F= -.23133227E+04 EK= 0.51938E+02 SP= 0.00E+00 SK= 0.00E+00
     5790 T=   948. E= -.22613853E+04 F= -.23141955E+04 EK= 0.52810E+02 SP= 0.00E+00 SK= 0.00E+00
     5800 T=   979. E= -.22613849E+04 F= -.23159024E+04 EK= 0.54518E+02 SP= 0.00E+00 SK= 0.00E+00
     5810 T=   994. E= -.22613877E+04 F= -.23167824E+04 EK= 0.55395E+02 SP= 0.00E+00 SK= 0.00E+00
     5820 T=  1008. E= -.22613916E+04 F= -.23175620E+04 EK= 0.56170E+02 SP= 0.00E+00 SK= 0.00E+00
     5830 T=  1024. E= -.22613903E+04 F= -.23184440E+04 EK= 0.57054E+02 SP= 0.00E+00 SK= 0.00E+00
     5840 T=  1017. E= -.22613910E+04 F= -.23180760E+04 EK= 0.56685E+02 SP= 0.00E+00 SK= 0.00E+00
     5850 T=   980. E= -.22613934E+04 F= -.23160162E+04 EK= 0.54623E+02 SP= 0.00E+00 SK= 0.00E+00
     5860 T=   955. E= -.22613899E+04 F= -.23145726E+04 EK= 0.53183E+02 SP= 0.00E+00 SK= 0.00E+00
     5870 T=   946. E= -.22613931E+04 F= -.23140803E+04 EK= 0.52687E+02 SP= 0.00E+00 SK= 0.00E+00
     5880 T=   939. E= -.22613882E+04 F= -.23137052E+04 EK= 0.52317E+02 SP= 0.00E+00 SK= 0.00E+00
     5890 T=   971. E= -.22613904E+04 F= -.23154748E+04 EK= 0.54084E+02 SP= 0.00E+00 SK= 0.00E+00
     5900 T=  1019. E= -.22613928E+04 F= -.23181597E+04 EK= 0.56767E+02 SP= 0.00E+00 SK= 0.00E+00
     5910 T=  1036. E= -.22613910E+04 F= -.23191289E+04 EK= 0.57738E+02 SP= 0.00E+00 SK= 0.00E+00
Randomizing velocities, T =   970.
     5920 T=   978. E= -.22648983E+04 F= -.23194092E+04 EK= 0.54511E+02 SP= 0.00E+00 SK= 0.00E+00
     5930 T=   956. E= -.22648935E+04 F= -.23181510E+04 EK= 0.53258E+02 SP= 0.00E+00 SK= 0.00E+00
     5940 T=   929. E= -.22648901E+04 F= -.23166304E+04 EK= 0.51740E+02 SP= 0.00E+00 SK= 0.00E+00
     5950 T=   928. E= -.22648869E+04 F= -.23166045E+04 EK= 0.51718E+02 SP= 0.00E+00 SK= 0.00E+00
     5960 T=   932. E= -.22648865E+04 F= -.23168243E+04 EK= 0.51938E+02 SP= 0.00E+00 SK= 0.00E+00
     5970 T=   918. E= -.22648850E+04 F= -.23160094E+04 EK= 0.51124E+02 SP= 0.00E+00 SK= 0.00E+00
     5980 T=   898. E= -.22648857E+04 F= -.23149364E+04 EK= 0.50051E+02 SP= 0.00E+00 SK= 0.00E+00
     5990 T=   894. E= -.22648815E+04 F= -.23147097E+04 EK= 0.49828E+02 SP= 0.00E+00 SK= 0.00E+00
     6000 T=   917. E= -.22648841E+04 F= -.23159672E+04 EK= 0.51083E+02 SP= 0.00E+00 SK= 0.00E+00
     6010 T=   943. E= -.22648850E+04 F= -.23174176E+04 EK= 0.52533E+02 SP= 0.00E+00 SK= 0.00E+00
     6020 T=   947. E= -.22648868E+04 F= -.23176399E+04 EK= 0.52753E+02 SP= 0.00E+00 SK= 0.00E+00
     6030 T=   949. E= -.22648875E+04 F= -.23177364E+04 EK= 0.52849E+02 SP= 0.00E+00 SK= 0.00E+00
     6040 T=   977. E= -.22648857E+04 F= -.23193178E+04 EK= 0.54432E+02 SP= 0.00E+00 SK= 0.00E+00
     6050 T=   996. E= -.22648871E+04 F= -.23203637E+04 EK= 0.55477E+02 SP= 0.00E+00 SK= 0.00E+00
     6060 T=   959. E= -.22648885E+04 F= -.23182934E+04 EK= 0.53405E+02 SP= 0.00E+00 SK= 0.00E+00
     6070 T=   904. E= -.22648911E+04 F= -.23152266E+04 EK= 0.50336E+02 SP= 0.00E+00 SK= 0.00E+00
     6080 T=   884. E= -.22648943E+04 F= -.23141601E+04 EK= 0.49266E+02 SP= 0.00E+00 SK= 0.00E+00
     6090 T=   910. E= -.22649003E+04 F= -.23155831E+04 EK= 0.50683E+02 SP= 0.00E+00 SK= 0.00E+00
     6100 T=   938. E= -.22648969E+04 F= -.23171582E+04 EK= 0.52261E+02 SP= 0.00E+00 SK= 0.00E+00
     6110 T=   945. E= -.22649005E+04 F= -.23175620E+04 EK= 0.52661E+02 SP= 0.00E+00 SK= 0.00E+00
     6120 T=   936. E= -.22648951E+04 F= -.23170473E+04 EK= 0.52152E+02 SP= 0.00E+00 SK= 0.00E+00
     6130 T=   934. E= -.22648928E+04 F= -.23169081E+04 EK= 0.52015E+02 SP= 0.00E+00 SK= 0.00E+00
     6140 T=   929. E= -.22648912E+04 F= -.23166208E+04 EK= 0.51730E+02 SP= 0.00E+00 SK= 0.00E+00
Randomizing velocities, T =   970.
     6150 T=   971. E= -.22614193E+04 F= -.23155309E+04 EK= 0.54112E+02 SP= 0.00E+00 SK= 0.00E+00
     6160 T=  1004. E= -.22614226E+04 F= -.23173699E+04 EK= 0.55947E+02 SP= 0.00E+00 SK= 0.00E+00
     6170 T=  1011. E= -.22614280E+04 F= -.23177504E+04 EK= 0.56322E+02 SP= 0.00E+00 SK= 0.00E+00
     6180 T=   993. E= -.22614293E+04 F= -.23167493E+04 EK= 0.55320E+02 SP= 0.00E+00 SK= 0.00E+00
     6190 T=   963. E= -.22614262E+04 F= -.23150712E+04 EK= 0.53645E+02 SP= 0.00E+00 SK= 0.00E+00
     6200 T=   936. E= -.22614272E+04 F= -.23136000E+04 EK= 0.52173E+02 SP= 0.00E+00 SK= 0.00E+00
     6210 T=   937. E= -.22614267E+04 F= -.23136040E+04 EK= 0.52177E+02 SP= 0.00E+00 SK= 0.00E+00
     6220 T=   967. E= -.22614262E+04 F= -.23153102E+04 EK= 0.53884E+02 SP= 0.00E+00 SK= 0.00E+00
     6230 T=   983. E= -.22614274E+04 F= -.23161820E+04 EK= 0.54755E+02 SP= 0.00E+00 SK= 0.00E+00
     6240 T=   970. E= -.22614247E+04 F= -.23154801E+04 EK= 0.54055E+02 SP= 0.00E+00 SK= 0.00E+00
     6250 T=   959. E= -.22614296E+04 F= -.23148819E+04 EK= 0.53452E+02 SP= 0.00E+00 SK= 0.00E+00
     6260 T=   953. E= -.22614284E+04 F= -.23145345E+04 EK= 0.53106E+02 SP= 0.00E+00 SK= 0.00E+00
     6270 T=   955. E= -.22614348E+04 F= -.23146303E+04 EK= 0.53196E+02 SP= 0.00E+00 SK= 0.00E+00
     6280 T=   967. E= -.22614399E+04 F= -.23153378E+04 EK= 0.53898E+02 SP= 0.00E+00 SK= 0.00E+00
     6290 T=   996. E= -.22614429E+04 F= -.23169380E+04 EK= 0.55495E+02 SP= 0.00E+00 SK= 0.00E+00
     6300 T=  1028. E= -.22614481E+04 F= -.23187420E+04 EK= 0.57294E+02 SP= 0.00E+00 SK= 0.00E+00
     6310 T=  1026. E= -.22614518E+04 F= -.23186316E+04 EK= 0.57180E+02 SP= 0.00E+00 SK= 0.00E+00
     6320 T=   979. E= -.22614475E+04 F= -.23159637E+04 EK= 0.54516E+02 SP= 0.00E+00 SK= 0.00E+00
     6330 T=   927. E= -.22614476E+04 F= -.23131095E+04 EK= 0.51662E+02 SP= 0.00E+00 SK= 0.00E+00
     6340 T=   917. E= -.22614446E+04 F= -.23125312E+04 EK= 0.51087E+02 SP= 0.00E+00 SK= 0.00E+00
     6350 T=   936. E= -.22614487E+04 F= -.23135786E+04 EK= 0.52130E+02 SP= 0.00E+00 SK= 0.00E+00
     6360 T=   943. E= -.22614484E+04 F= -.23139822E+04 EK= 0.52534E+02 SP= 0.00E+00 SK= 0.00E+00
Randomizing velocities, T =   970.
     6370 T=   970. E= -.22597191E+04 F= -.23137586E+04 EK= 0.54039E+02 SP= 0.00E+00 SK= 0.00E+00
     6380 T=   958. E= -.22597169E+04 F= -.23131153E+04 EK= 0.53398E+02 SP= 0.00E+00 SK= 0.00E+00
     6390 T=   961. E= -.22597173E+04 F= -.23132457E+04 EK= 0.53528E+02 SP= 0.00E+00 SK= 0.00E+00
     6400 T=   977. E= -.22597099E+04 F= -.23141192E+04 EK= 0.54409E+02 SP= 0.00E+00 SK= 0.00E+00
     6410 T=   987. E= -.22597094E+04 F= -.23146795E+04 EK= 0.54970E+02 SP= 0.00E+00 SK= 0.00E+00
     6420 T=   987. E= -.22597062E+04 F= -.23146866E+04 EK= 0.54980E+02 SP= 0.00E+00 SK= 0.00E+00
     6430 T=   978. E= -.22597071E+04 F= -.23141666E+04 EK= 0.54459E+02 SP= 0.00E+00 SK= 0.00E+00
     6440 T=   969. E= -.22597050E+04 F= -.23137040E+04 EK= 0.53999E+02 SP= 0.00E+00 SK= 0.00E+00
     6450 T=   981. E= -.22597023E+04 F= -.23143824E+04 EK= 0.54680E+02 SP= 0.00E+00 SK= 0.00E+00
     6460 T=  1009. E= -.22597018E+04 F= -.23159004E+04 EK= 0.56199E+02 SP= 0.00E+00 SK= 0.00E+00
     6470 T=  1020. E= -.22597012E+04 F= -.23165000E+04 EK= 0.56799E+02 SP= 0.00E+00 SK= 0.00E+00
     6480 T=   988. E= -.22596972E+04 F= -.23147521E+04 EK= 0.55055E+02 SP= 0.00E+00 SK= 0.00E+00
     6490 T=   949. E= -.22596893E+04 F= -.23125568E+04 EK= 0.52867E+02 SP= 0.00E+00 SK= 0.00E+00
     6500 T=   955. E= -.22596963E+04 F= -.23128933E+04 EK= 0.53197E+02 SP= 0.00E+00 SK= 0.00E+00
     6510 T=   995. E= -.22596962E+04 F= -.23151162E+04 EK= 0.55420E+02 SP= 0.00E+00 SK= 0.00E+00
     6520 T=  1038. E= -.22596974E+04 F= -.23175361E+04 EK= 0.57839E+02 SP= 0.00E+00 SK= 0.00E+00
     6530 T=  1056. E= -.22596927E+04 F= -.23185036E+04 EK= 0.58811E+02 SP= 0.00E+00 SK= 0.00E+00
     6540 T=  1037. E= -.22596927E+04 F= -.23174830E+04 EK= 0.57790E+02 SP= 0.00E+00 SK= 0.00E+00
     6550 T=   998. E= -.22596910E+04 F= -.23153084E+04 EK= 0.55617E+02 SP= 0.00E+00 SK= 0.00E+00
     6560 T=   971. E= -.22596821E+04 F= -.23137709E+04 EK= 0.54089E+02 SP= 0.00E+00 SK= 0.00E+00
     6570 T=   970. E= -.22596792E+04 F= -.23137268E+04 EK= 0.54048E+02 SP= 0.00E+00 SK= 0.00E+00
     6580 T=   998. E= -.22596766E+04 F= -.23152672E+04 EK= 0.55591E+02 SP= 0.00E+00 SK= 0.00E+00
     6590 T=  1012. E= -.22596805E+04 F= -.23160808E+04 EK= 0.56400E+02 SP= 0.00E+00 SK= 0.00E+00
     6600 T=   963. E= -.22596763E+04 F= -.23133435E+04 EK= 0.53667E+02 SP= 0.00E+00 SK= 0.00E+00
     6610 T=   900. E= -.22596771E+04 F= -.23098062E+04 EK= 0.50129E+02 SP= 0.00E+00 SK= 0.00E+00
     6620 T=   902. E= -.22596763E+04 F= -.23099214E+04 EK= 0.50245E+02 SP= 0.00E+00 SK= 0.00E+00
     6630 T=   959. E= -.22596780E+04 F= -.23131086E+04 EK= 0.53431E+02 SP= 0.00E+00 SK= 0.00E+00
Randomizing velocities, T =   970.
     6640 T=   971. E= -.22611167E+04 F= -.23152376E+04 EK= 0.54121E+02 SP= 0.00E+00 SK= 0.00E+00
     6650 T=   981. E= -.22611168E+04 F= -.23157501E+04 EK= 0.54633E+02 SP= 0.00E+00 SK= 0.00E+00
     6660 T=   983. E= -.22611185E+04 F= -.23158613E+04 EK= 0.54743E+02 SP= 0.00E+00 SK= 0.00E+00
     6670 T=   965. E= -.22611178E+04 F= -.23148889E+04 EK= 0.53771E+02 SP= 0.00E+00 SK= 0.00E+00
     6680 T=   935. E= -.22611220E+04 F= -.23131950E+04 EK= 0.52073E+02 SP= 0.00E+00 SK= 0.00E+00
     6690 T=   923. E= -.22611255E+04 F= -.23125246E+04 EK= 0.51399E+02 SP= 0.00E+00 SK= 0.00E+00
     6700 T=   939. E= -.22611248E+04 F= -.23134565E+04 EK= 0.52332E+02 SP= 0.00E+00 SK= 0.00E+00
     6710 T=   970. E= -.22611280E+04 F= -.23151461E+04 EK= 0.54018E+02 SP= 0.00E+00 SK= 0.00E+00
     6720 T=   990. E= -.22611306E+04 F= -.23162625E+04 EK= 0.55132E+02 SP= 0.00E+00 SK= 0.00E+00
Randomizing velocities, T =   970.
Randomizing velocities, T =   970.
     6730 T=   967. E= -.22621854E+04 F= -.23160707E+04 EK= 0.53885E+02 SP= 0.00E+00 SK= 0.00E+00
     6740 T=   956. E= -.22621799E+04 F= -.23154168E+04 EK= 0.53237E+02 SP= 0.00E+00 SK= 0.00E+00
     6750 T=   958. E= -.22621812E+04 F= -.23155399E+04 EK= 0.53359E+02 SP= 0.00E+00 SK= 0.00E+00
     6760 T=   965. E= -.22621792E+04 F= -.23159475E+04 EK= 0.53768E+02 SP= 0.00E+00 SK= 0.00E+00
     6770 T=   980. E= -.22621757E+04 F= -.23167695E+04 EK= 0.54594E+02 SP= 0.00E+00 SK= 0.00E+00
     6780 T=   988. E= -.22621807E+04 F= -.23172113E+04 EK= 0.55031E+02 SP= 0.00E+00 SK= 0.00E+00
     6790 T=   968. E= -.22621865E+04 F= -.23161048E+04 EK= 0.53918E+02 SP= 0.00E+00 SK= 0.00E+00
     6800 T=   946. E= -.22621888E+04 F= -.23148791E+04 EK= 0.52690E+02 SP= 0.00E+00 SK= 0.00E+00
     6810 T=   949. E= -.22621883E+04 F= -.23150709E+04 EK= 0.52883E+02 SP= 0.00E+00 SK= 0.00E+00
     6820 T=   957. E= -.22621825E+04 F= -.23154878E+04 EK= 0.53305E+02 SP= 0.00E+00 SK= 0.00E+00
     6830 T=   952. E= -.22621803E+04 F= -.23151972E+04 EK= 0.53017E+02 SP= 0.00E+00 SK= 0.00E+00
     6840 T=   956. E= -.22621798E+04 F= -.23154634E+04 EK= 0.53284E+02 SP= 0.00E+00 SK= 0.00E+00
     6850 T=   984. E= -.22621786E+04 F= -.23170240E+04 EK= 0.54845E+02 SP= 0.00E+00 SK= 0.00E+00
     6860 T=   999. E= -.22621731E+04 F= -.23178177E+04 EK= 0.55645E+02 SP= 0.00E+00 SK= 0.00E+00
     6870 T=   983. E= -.22621735E+04 F= -.23169569E+04 EK= 0.54783E+02 SP= 0.00E+00 SK= 0.00E+00
     6880 T=   960. E= -.22621727E+04 F= -.23156728E+04 EK= 0.53500E+02 SP= 0.00E+00 SK= 0.00E+00
     6890 T=   941. E= -.22621696E+04 F= -.23145695E+04 EK= 0.52400E+02 SP= 0.00E+00 SK= 0.00E+00
     6900 T=   916. E= -.22621674E+04 F= -.23131896E+04 EK= 0.51022E+02 SP= 0.00E+00 SK= 0.00E+00
     6910 T=   911. E= -.22621622E+04 F= -.23129008E+04 EK= 0.50739E+02 SP= 0.00E+00 SK= 0.00E+00
     6920 T=   953. E= -.22621645E+04 F= -.23152831E+04 EK= 0.53119E+02 SP= 0.00E+00 SK= 0.00E+00
     6930 T=  1012. E= -.22621691E+04 F= -.23185482E+04 EK= 0.56379E+02 SP= 0.00E+00 SK= 0.00E+00
     6940 T=  1031. E= -.22621740E+04 F= -.23196015E+04 EK= 0.57428E+02 SP= 0.00E+00 SK= 0.00E+00
     6950 T=   975. E= -.22621736E+04 F= -.23165013E+04 EK= 0.54328E+02 SP= 0.00E+00 SK= 0.00E+00
     6960 T=   916. E= -.22621685E+04 F= -.23132263E+04 EK= 0.51058E+02 SP= 0.00E+00 SK= 0.00E+00
     6970 T=   935. E= -.22621706E+04 F= -.23142564E+04 EK= 0.52086E+02 SP= 0.00E+00 SK= 0.00E+00
     6980 T=   982. E= -.22621716E+04 F= -.23169071E+04 EK= 0.54736E+02 SP= 0.00E+00 SK= 0.00E+00
     6990 T=  1002. E= -.22621719E+04 F= -.23179768E+04 EK= 0.55805E+02 SP= 0.00E+00 SK= 0.00E+00
     7000 T=   977. E= -.22621748E+04 F= -.23165822E+04 EK= 0.54407E+02 SP= 0.00E+00 SK= 0.00E+00
     7010 T=   926. E= -.22621730E+04 F= -.23137485E+04 EK= 0.51576E+02 SP= 0.00E+00 SK= 0.00E+00
     7020 T=   892. E= -.22621661E+04 F= -.23118565E+04 EK= 0.49690E+02 SP= 0.00E+00 SK= 0.00E+00
     7030 T=   901. E= -.22621673E+04 F= -.23123681E+04 EK= 0.50201E+02 SP= 0.00E+00 SK= 0.00E+00
     7040 T=   942. E= -.22621677E+04 F= -.23146263E+04 EK= 0.52459E+02 SP= 0.00E+00 SK= 0.00E+00
     7050 T=   975. E= -.22621680E+04 F= -.23164865E+04 EK= 0.54318E+02 SP= 0.00E+00 SK= 0.00E+00
     7060 T=   965. E= -.22621662E+04 F= -.23159090E+04 EK= 0.53743E+02 SP= 0.00E+00 SK= 0.00E+00
     7070 T=   943. E= -.22621626E+04 F= -.23146955E+04 EK= 0.52533E+02 SP= 0.00E+00 SK= 0.00E+00
     7080 T=   958. E= -.22621690E+04 F= -.23155307E+04 EK= 0.53362E+02 SP= 0.00E+00 SK= 0.00E+00
     7090 T=   992. E= -.22621742E+04 F= -.23174362E+04 EK= 0.55262E+02 SP= 0.00E+00 SK= 0.00E+00
     7100 T=   998. E= -.22621688E+04 F= -.23177545E+04 EK= 0.55586E+02 SP= 0.00E+00 SK= 0.00E+00
     7110 T=   974. E= -.22621703E+04 F= -.23164116E+04 EK= 0.54241E+02 SP= 0.00E+00 SK= 0.00E+00
     7120 T=   941. E= -.22621685E+04 F= -.23145730E+04 EK= 0.52404E+02 SP= 0.00E+00 SK= 0.00E+00
     7130 T=   930. E= -.22621661E+04 F= -.23139630E+04 EK= 0.51797E+02 SP= 0.00E+00 SK= 0.00E+00
     7140 T=   944. E= -.22621701E+04 F= -.23147874E+04 EK= 0.52617E+02 SP= 0.00E+00 SK= 0.00E+00
     7150 T=   957. E= -.22621645E+04 F= -.23154804E+04 EK= 0.53316E+02 SP= 0.00E+00 SK= 0.00E+00
     7160 T=   964. E= -.22621679E+04 F= -.23159013E+04 EK= 0.53733E+02 SP= 0.00E+00 SK= 0.00E+00
     7170 T=   973. E= -.22621716E+04 F= -.23163781E+04 EK= 0.54207E+02 SP= 0.00E+00 SK= 0.00E+00
     7180 T=   963. E= -.22621674E+04 F= -.23158302E+04 EK= 0.53663E+02 SP= 0.00E+00 SK= 0.00E+00
     7190 T=   930. E= -.22621665E+04 F= -.23140045E+04 EK= 0.51838E+02 SP= 0.00E+00 SK= 0.00E+00
     7200 T=   904. E= -.22621633E+04 F= -.23125199E+04 EK= 0.50357E+02 SP= 0.00E+00 SK= 0.00E+00
     7210 T=   921. E= -.22621584E+04 F= -.23134687E+04 EK= 0.51310E+02 SP= 0.00E+00 SK= 0.00E+00
     7220 T=   979. E= -.22621634E+04 F= -.23167043E+04 EK= 0.54541E+02 SP= 0.00E+00 SK= 0.00E+00
     7230 T=  1023. E= -.22621712E+04 F= -.23191542E+04 EK= 0.56983E+02 SP= 0.00E+00 SK= 0.00E+00
     7240 T=  1010. E= -.22621747E+04 F= -.23184345E+04 EK= 0.56260E+02 SP= 0.00E+00 SK= 0.00E+00
     7250 T=   957. E= -.22621722E+04 F= -.23154677E+04 EK= 0.53296E+02 SP= 0.00E+00 SK= 0.00E+00
     7260 T=   922. E= -.22621699E+04 F= -.23135481E+04 EK= 0.51378E+02 SP= 0.00E+00 SK= 0.00E+00
     7270 T=   932. E= -.22621727E+04 F= -.23141065E+04 EK= 0.51934E+02 SP= 0.00E+00 SK= 0.00E+00
     7280 T=   965. E= -.22621785E+04 F= -.23159453E+04 EK= 0.53767E+02 SP= 0.00E+00 SK= 0.00E+00
     7290 T=   981. E= -.22621790E+04 F= -.23168162E+04 EK= 0.54637E+02 SP= 0.00E+00 SK= 0.00E+00
     7300 T=   964. E= -.22621778E+04 F= -.23158919E+04 EK= 0.53714E+02 SP= 0.00E+00 SK= 0.00E+00
     7310 T=   940. E= -.22621766E+04 F= -.23145300E+04 EK= 0.52353E+02 SP= 0.00E+00 SK= 0.00E+00
     7320 T=   937. E= -.22621802E+04 F= -.23143967E+04 EK= 0.52216E+02 SP= 0.00E+00 SK= 0.00E+00
     7330 T=   940. E= -.22621832E+04 F= -.23145759E+04 EK= 0.52393E+02 SP= 0.00E+00 SK= 0.00E+00
     7340 T=   931. E= -.22621786E+04 F= -.23140216E+04 EK= 0.51843E+02 SP= 0.00E+00 SK= 0.00E+00
     7350 T=   919. E= -.22621833E+04 F= -.23133988E+04 EK= 0.51215E+02 SP= 0.00E+00 SK= 0.00E+00
     7360 T=   931. E= -.22621831E+04 F= -.23140535E+04 EK= 0.51870E+02 SP= 0.00E+00 SK= 0.00E+00
     7370 T=   962. E= -.22621818E+04 F= -.23157647E+04 EK= 0.53583E+02 SP= 0.00E+00 SK= 0.00E+00
     7380 T=   990. E= -.22621819E+04 F= -.23173101E+04 EK= 0.55128E+02 SP= 0.00E+00 SK= 0.00E+00
     7390 T=   992. E= -.22621769E+04 F= -.23174392E+04 EK= 0.55262E+02 SP= 0.00E+00 SK= 0.00E+00
     7400 T=   975. E= -.22621761E+04 F= -.23164860E+04 EK= 0.54310E+02 SP= 0.00E+00 SK= 0.00E+00
     7410 T=   947. E= -.22621781E+04 F= -.23149141E+04 EK= 0.52736E+02 SP= 0.00E+00 SK= 0.00E+00
     7420 T=   932. E= -.22621806E+04 F= -.23141292E+04 EK= 0.51949E+02 SP= 0.00E+00 SK= 0.00E+00
     7430 T=   947. E= -.22621856E+04 F= -.23149589E+04 EK= 0.52773E+02 SP= 0.00E+00 SK= 0.00E+00
     7440 T=   952. E= -.22621822E+04 F= -.23152455E+04 EK= 0.53063E+02 SP= 0.00E+00 SK= 0.00E+00
     7450 T=   938. E= -.22621779E+04 F= -.23144553E+04 EK= 0.52277E+02 SP= 0.00E+00 SK= 0.00E+00
     7460 T=   941. E= -.22621721E+04 F= -.23146222E+04 EK= 0.52450E+02 SP= 0.00E+00 SK= 0.00E+00
     7470 T=   970. E= -.22621736E+04 F= -.23162155E+04 EK= 0.54042E+02 SP= 0.00E+00 SK= 0.00E+00
     7480 T=   986. E= -.22621748E+04 F= -.23171092E+04 EK= 0.54934E+02 SP= 0.00E+00 SK= 0.00E+00
     7490 T=   974. E= -.22621816E+04 F= -.23164465E+04 EK= 0.54265E+02 SP= 0.00E+00 SK= 0.00E+00
     7500 T=   963. E= -.22621848E+04 F= -.23158312E+04 EK= 0.53646E+02 SP= 0.00E+00 SK= 0.00E+00
     7510 T=   973. E= -.22621796E+04 F= -.23163765E+04 EK= 0.54197E+02 SP= 0.00E+00 SK= 0.00E+00
     7520 T=  1002. E= -.22621805E+04 F= -.23179896E+04 EK= 0.55809E+02 SP= 0.00E+00 SK= 0.00E+00
     7530 T=  1003. E= -.22621783E+04 F= -.23180699E+04 EK= 0.55892E+02 SP= 0.00E+00 SK= 0.00E+00
     7540 T=   971. E= -.22621769E+04 F= -.23162977E+04 EK= 0.54121E+02 SP= 0.00E+00 SK= 0.00E+00
     7550 T=   935. E= -.22621839E+04 F= -.23142876E+04 EK= 0.52104E+02 SP= 0.00E+00 SK= 0.00E+00
     7560 T=   922. E= -.22621837E+04 F= -.23135703E+04 EK= 0.51387E+02 SP= 0.00E+00 SK= 0.00E+00
     7570 T=   933. E= -.22621850E+04 F= -.23141664E+04 EK= 0.51981E+02 SP= 0.00E+00 SK= 0.00E+00
     7580 T=   944. E= -.22621844E+04 F= -.23147972E+04 EK= 0.52613E+02 SP= 0.00E+00 SK= 0.00E+00
     7590 T=   955. E= -.22621818E+04 F= -.23153926E+04 EK= 0.53211E+02 SP= 0.00E+00 SK= 0.00E+00
     7600 T=   963. E= -.22621811E+04 F= -.23158227E+04 EK= 0.53642E+02 SP= 0.00E+00 SK= 0.00E+00
     7610 T=   960. E= -.22621759E+04 F= -.23156590E+04 EK= 0.53483E+02 SP= 0.00E+00 SK= 0.00E+00
     7620 T=   951. E= -.22621733E+04 F= -.23151349E+04 EK= 0.52962E+02 SP= 0.00E+00 SK= 0.00E+00
     7630 T=   941. E= -.22621744E+04 F= -.23145735E+04 EK= 0.52399E+02 SP= 0.00E+00 SK= 0.00E+00
     7640 T=   936. E= -.22621732E+04 F= -.23143197E+04 EK= 0.52146E+02 SP= 0.00E+00 SK= 0.00E+00
     7650 T=   950. E= -.22621729E+04 F= -.23150962E+04 EK= 0.52923E+02 SP= 0.00E+00 SK= 0.00E+00
     7660 T=   987. E= -.22621742E+04 F= -.23171427E+04 EK= 0.54968E+02 SP= 0.00E+00 SK= 0.00E+00
     7670 T=  1016. E= -.22621778E+04 F= -.23187816E+04 EK= 0.56604E+02 SP= 0.00E+00 SK= 0.00E+00
     7680 T=   986. E= -.22621790E+04 F= -.23170992E+04 EK= 0.54920E+02 SP= 0.00E+00 SK= 0.00E+00
     7690 T=   912. E= -.22621713E+04 F= -.23129738E+04 EK= 0.50802E+02 SP= 0.00E+00 SK= 0.00E+00
     7700 T=   874. E= -.22621699E+04 F= -.23108716E+04 EK= 0.48702E+02 SP= 0.00E+00 SK= 0.00E+00
     7710 T=   911. E= -.22621653E+04 F= -.23129368E+04 EK= 0.50771E+02 SP= 0.00E+00 SK= 0.00E+00
     7720 T=   982. E= -.22621660E+04 F= -.23168996E+04 EK= 0.54734E+02 SP= 0.00E+00 SK= 0.00E+00
     7730 T=  1018. E= -.22621615E+04 F= -.23188879E+04 EK= 0.56726E+02 SP= 0.00E+00 SK= 0.00E+00
     7740 T=   993. E= -.22621562E+04 F= -.23174652E+04 EK= 0.55309E+02 SP= 0.00E+00 SK= 0.00E+00
     7750 T=   947. E= -.22621545E+04 F= -.23149175E+04 EK= 0.52763E+02 SP= 0.00E+00 SK= 0.00E+00
     7760 T=   928. E= -.22621484E+04 F= -.23138341E+04 EK= 0.51686E+02 SP= 0.00E+00 SK= 0.00E+00
     7770 T=   963. E= -.22621485E+04 F= -.23157738E+04 EK= 0.53625E+02 SP= 0.00E+00 SK= 0.00E+00
     7780 T=  1013. E= -.22621468E+04 F= -.23185757E+04 EK= 0.56429E+02 SP= 0.00E+00 SK= 0.00E+00
     7790 T=  1014. E= -.22621499E+04 F= -.23186420E+04 EK= 0.56492E+02 SP= 0.00E+00 SK= 0.00E+00
     7800 T=   969. E= -.22621505E+04 F= -.23161356E+04 EK= 0.53985E+02 SP= 0.00E+00 SK= 0.00E+00
     7810 T=   918. E= -.22621536E+04 F= -.23132801E+04 EK= 0.51127E+02 SP= 0.00E+00 SK= 0.00E+00
     7820 T=   902. E= -.22621482E+04 F= -.23123814E+04 EK= 0.50233E+02 SP= 0.00E+00 SK= 0.00E+00
     7830 T=   922. E= -.22621501E+04 F= -.23135336E+04 EK= 0.51384E+02 SP= 0.00E+00 SK= 0.00E+00
     7840 T=   937. E= -.22621468E+04 F= -.23143320E+04 EK= 0.52185E+02 SP= 0.00E+00 SK= 0.00E+00
     7850 T=   929. E= -.22621490E+04 F= -.23139291E+04 EK= 0.51780E+02 SP= 0.00E+00 SK= 0.00E+00
     7860 T=   927. E= -.22621412E+04 F= -.23137677E+04 EK= 0.51627E+02 SP= 0.00E+00 SK= 0.00E+00
     7870 T=   961. E= -.22621427E+04 F= -.23156600E+04 EK= 0.53517E+02 SP= 0.00E+00 SK= 0.00E+00
     7880 T=   994. E= -.22621380E+04 F= -.23175254E+04 EK= 0.55387E+02 SP= 0.00E+00 SK= 0.00E+00
     7890 T=   995. E= -.22621373E+04 F= -.23175476E+04 EK= 0.55410E+02 SP= 0.00E+00 SK= 0.00E+00
     7900 T=   975. E= -.22621445E+04 F= -.23164748E+04 EK= 0.54330E+02 SP= 0.00E+00 SK= 0.00E+00
     7910 T=   967. E= -.22621423E+04 F= -.23160351E+04 EK= 0.53893E+02 SP= 0.00E+00 SK= 0.00E+00
     7920 T=   981. E= -.22621432E+04 F= -.23167907E+04 EK= 0.54648E+02 SP= 0.00E+00 SK= 0.00E+00
     7930 T=   997. E= -.22621424E+04 F= -.23176940E+04 EK= 0.55552E+02 SP= 0.00E+00 SK= 0.00E+00
[...]
    28240 T=   951. E= -.22606212E+04 F= -.23136287E+04 EK= 0.53007E+02 SP= 0.00E+00 SK= 0.00E+00
    28250 T=   934. E= -.22606209E+04 F= -.23126648E+04 EK= 0.52044E+02 SP= 0.00E+00 SK= 0.00E+00
    28260 T=   952. E= -.22606151E+04 F= -.23136678E+04 EK= 0.53053E+02 SP= 0.00E+00 SK= 0.00E+00
    28270 T=   978. E= -.22606194E+04 F= -.23151296E+04 EK= 0.54510E+02 SP= 0.00E+00 SK= 0.00E+00
    28280 T=   978. E= -.22606108E+04 F= -.23150802E+04 EK= 0.54469E+02 SP= 0.00E+00 SK= 0.00E+00
    28290 T=   972. E= -.22606096E+04 F= -.23147418E+04 EK= 0.54132E+02 SP= 0.00E+00 SK= 0.00E+00
    28300 T=   985. E= -.22606051E+04 F= -.23154750E+04 EK= 0.54870E+02 SP= 0.00E+00 SK= 0.00E+00
    28310 T=  1007. E= -.22606095E+04 F= -.23167274E+04 EK= 0.56118E+02 SP= 0.00E+00 SK= 0.00E+00
    28320 T=  1008. E= -.22606067E+04 F= -.23167892E+04 EK= 0.56183E+02 SP= 0.00E+00 SK= 0.00E+00
    28330 T=   972. E= -.22606120E+04 F= -.23147523E+04 EK= 0.54140E+02 SP= 0.00E+00 SK= 0.00E+00
    28340 T=   937. E= -.22606110E+04 F= -.23128310E+04 EK= 0.52220E+02 SP= 0.00E+00 SK= 0.00E+00
    28350 T=   958. E= -.22606184E+04 F= -.23139774E+04 EK= 0.53359E+02 SP= 0.00E+00 SK= 0.00E+00
    28360 T=   998. E= -.22606165E+04 F= -.23162067E+04 EK= 0.55590E+02 SP= 0.00E+00 SK= 0.00E+00
    28370 T=   996. E= -.22606177E+04 F= -.23161148E+04 EK= 0.55497E+02 SP= 0.00E+00 SK= 0.00E+00
    28380 T=   971. E= -.22606127E+04 F= -.23147263E+04 EK= 0.54114E+02 SP= 0.00E+00 SK= 0.00E+00
    28390 T=   968. E= -.22606150E+04 F= -.23145609E+04 EK= 0.53946E+02 SP= 0.00E+00 SK= 0.00E+00
    28400 T=   977. E= -.22606167E+04 F= -.23150600E+04 EK= 0.54443E+02 SP= 0.00E+00 SK= 0.00E+00
    28410 T=   989. E= -.22606141E+04 F= -.23156889E+04 EK= 0.55075E+02 SP= 0.00E+00 SK= 0.00E+00
    28420 T=   997. E= -.22606131E+04 F= -.23161551E+04 EK= 0.55542E+02 SP= 0.00E+00 SK= 0.00E+00
    28430 T=   988. E= -.22606010E+04 F= -.23156488E+04 EK= 0.55048E+02 SP= 0.00E+00 SK= 0.00E+00
    28440 T=   957. E= -.22605936E+04 F= -.23138875E+04 EK= 0.53294E+02 SP= 0.00E+00 SK= 0.00E+00
    28450 T=   923. E= -.22605889E+04 F= -.23120122E+04 EK= 0.51423E+02 SP= 0.00E+00 SK= 0.00E+00
    28460 T=   907. E= -.22605915E+04 F= -.23111266E+04 EK= 0.50535E+02 SP= 0.00E+00 SK= 0.00E+00
    28470 T=   938. E= -.22605951E+04 F= -.23128278E+04 EK= 0.52233E+02 SP= 0.00E+00 SK= 0.00E+00
    28480 T=   977. E= -.22606024E+04 F= -.23150188E+04 EK= 0.54416E+02 SP= 0.00E+00 SK= 0.00E+00
    28490 T=   978. E= -.22606076E+04 F= -.23150942E+04 EK= 0.54487E+02 SP= 0.00E+00 SK= 0.00E+00
    28500 T=   967. E= -.22606143E+04 F= -.23145096E+04 EK= 0.53895E+02 SP= 0.00E+00 SK= 0.00E+00
    28510 T=   981. E= -.22606165E+04 F= -.23152541E+04 EK= 0.54638E+02 SP= 0.00E+00 SK= 0.00E+00
    28520 T=  1005. E= -.22606091E+04 F= -.23166011E+04 EK= 0.55992E+02 SP= 0.00E+00 SK= 0.00E+00
    28530 T=  1000. E= -.22606121E+04 F= -.23163192E+04 EK= 0.55707E+02 SP= 0.00E+00 SK= 0.00E+00
    28540 T=   973. E= -.22606098E+04 F= -.23148267E+04 EK= 0.54217E+02 SP= 0.00E+00 SK= 0.00E+00
    28550 T=   975. E= -.22606153E+04 F= -.23149364E+04 EK= 0.54321E+02 SP= 0.00E+00 SK= 0.00E+00
    28560 T=   997. E= -.22606180E+04 F= -.23161779E+04 EK= 0.55560E+02 SP= 0.00E+00 SK= 0.00E+00
    28570 T=  1001. E= -.22606165E+04 F= -.23163978E+04 EK= 0.55781E+02 SP= 0.00E+00 SK= 0.00E+00
    28580 T=   977. E= -.22606145E+04 F= -.23150474E+04 EK= 0.54433E+02 SP= 0.00E+00 SK= 0.00E+00
    28590 T=   950. E= -.22606155E+04 F= -.23135542E+04 EK= 0.52939E+02 SP= 0.00E+00 SK= 0.00E+00
    28600 T=   950. E= -.22606059E+04 F= -.23135188E+04 EK= 0.52913E+02 SP= 0.00E+00 SK= 0.00E+00
    28610 T=   972. E= -.22606043E+04 F= -.23147808E+04 EK= 0.54176E+02 SP= 0.00E+00 SK= 0.00E+00
    28620 T=   996. E= -.22606029E+04 F= -.23161081E+04 EK= 0.55505E+02 SP= 0.00E+00 SK= 0.00E+00
    28630 T=   996. E= -.22606012E+04 F= -.23160983E+04 EK= 0.55497E+02 SP= 0.00E+00 SK= 0.00E+00
    28640 T=   979. E= -.22606044E+04 F= -.23151378E+04 EK= 0.54533E+02 SP= 0.00E+00 SK= 0.00E+00
    28650 T=   964. E= -.22606034E+04 F= -.23142913E+04 EK= 0.53688E+02 SP= 0.00E+00 SK= 0.00E+00
    28660 T=   961. E= -.22606021E+04 F= -.23141151E+04 EK= 0.53513E+02 SP= 0.00E+00 SK= 0.00E+00
Randomizing velocities, T =   970.
    28670 T=   977. E= -.22600914E+04 F= -.23145445E+04 EK= 0.54453E+02 SP= 0.00E+00 SK= 0.00E+00
    28680 T=   973. E= -.22600934E+04 F= -.23143235E+04 EK= 0.54230E+02 SP= 0.00E+00 SK= 0.00E+00
    28690 T=   961. E= -.22600888E+04 F= -.23136542E+04 EK= 0.53565E+02 SP= 0.00E+00 SK= 0.00E+00
    28700 T=   956. E= -.22600798E+04 F= -.23133190E+04 EK= 0.53239E+02 SP= 0.00E+00 SK= 0.00E+00
    28710 T=   959. E= -.22600746E+04 F= -.23135148E+04 EK= 0.53440E+02 SP= 0.00E+00 SK= 0.00E+00
    28720 T=   968. E= -.22600665E+04 F= -.23140206E+04 EK= 0.53954E+02 SP= 0.00E+00 SK= 0.00E+00
    28730 T=   982. E= -.22600662E+04 F= -.23147679E+04 EK= 0.54702E+02 SP= 0.00E+00 SK= 0.00E+00
    28740 T=   990. E= -.22600596E+04 F= -.23152173E+04 EK= 0.55158E+02 SP= 0.00E+00 SK= 0.00E+00
    28750 T=  1000. E= -.22600557E+04 F= -.23157587E+04 EK= 0.55703E+02 SP= 0.00E+00 SK= 0.00E+00
    28760 T=  1013. E= -.22600561E+04 F= -.23164894E+04 EK= 0.56433E+02 SP= 0.00E+00 SK= 0.00E+00
    28770 T=  1008. E= -.22600553E+04 F= -.23162388E+04 EK= 0.56183E+02 SP= 0.00E+00 SK= 0.00E+00
    28780 T=   992. E= -.22600638E+04 F= -.23153199E+04 EK= 0.55256E+02 SP= 0.00E+00 SK= 0.00E+00
    28790 T=   983. E= -.22600664E+04 F= -.23148122E+04 EK= 0.54746E+02 SP= 0.00E+00 SK= 0.00E+00
    28800 T=   985. E= -.22600654E+04 F= -.23149500E+04 EK= 0.54885E+02 SP= 0.00E+00 SK= 0.00E+00
    28810 T=   988. E= -.22600591E+04 F= -.23150818E+04 EK= 0.55023E+02 SP= 0.00E+00 SK= 0.00E+00
    28820 T=   979. E= -.22600571E+04 F= -.23145797E+04 EK= 0.54523E+02 SP= 0.00E+00 SK= 0.00E+00
    28830 T=   965. E= -.22600541E+04 F= -.23138025E+04 EK= 0.53748E+02 SP= 0.00E+00 SK= 0.00E+00
    28840 T=   964. E= -.22600559E+04 F= -.23137449E+04 EK= 0.53689E+02 SP= 0.00E+00 SK= 0.00E+00
    28850 T=   965. E= -.22600596E+04 F= -.23138207E+04 EK= 0.53761E+02 SP= 0.00E+00 SK= 0.00E+00
    28860 T=   953. E= -.22600610E+04 F= -.23131778E+04 EK= 0.53117E+02 SP= 0.00E+00 SK= 0.00E+00
Randomizing velocities, T =   970.
    28870 T=   977. E= -.22591083E+04 F= -.23135288E+04 EK= 0.54420E+02 SP= 0.00E+00 SK= 0.00E+00
    28880 T=  1009. E= -.22591093E+04 F= -.23153353E+04 EK= 0.56226E+02 SP= 0.00E+00 SK= 0.00E+00
    28890 T=  1036. E= -.22591117E+04 F= -.23168388E+04 EK= 0.57727E+02 SP= 0.00E+00 SK= 0.00E+00
    28900 T=  1038. E= -.22591100E+04 F= -.23169428E+04 EK= 0.57833E+02 SP= 0.00E+00 SK= 0.00E+00
    28910 T=  1017. E= -.22591109E+04 F= -.23157753E+04 EK= 0.56664E+02 SP= 0.00E+00 SK= 0.00E+00
    28920 T=   990. E= -.22591090E+04 F= -.23142681E+04 EK= 0.55159E+02 SP= 0.00E+00 SK= 0.00E+00
    28930 T=   957. E= -.22591115E+04 F= -.23123999E+04 EK= 0.53288E+02 SP= 0.00E+00 SK= 0.00E+00
    28940 T=   925. E= -.22591075E+04 F= -.23106243E+04 EK= 0.51517E+02 SP= 0.00E+00 SK= 0.00E+00
    28950 T=   929. E= -.22591044E+04 F= -.23108484E+04 EK= 0.51744E+02 SP= 0.00E+00 SK= 0.00E+00
    28960 T=   965. E= -.22591027E+04 F= -.23128476E+04 EK= 0.53745E+02 SP= 0.00E+00 SK= 0.00E+00
    28970 T=   995. E= -.22591040E+04 F= -.23145344E+04 EK= 0.55430E+02 SP= 0.00E+00 SK= 0.00E+00
    28980 T=  1004. E= -.22591008E+04 F= -.23150212E+04 EK= 0.55920E+02 SP= 0.00E+00 SK= 0.00E+00
    28990 T=  1013. E= -.22590981E+04 F= -.23155198E+04 EK= 0.56422E+02 SP= 0.00E+00 SK= 0.00E+00
    29000 T=  1017. E= -.22590954E+04 F= -.23157407E+04 EK= 0.56645E+02 SP= 0.00E+00 SK= 0.00E+00
Randomizing velocities, T =   970.
    29010 T=   971. E= -.22613434E+04 F= -.23154477E+04 EK= 0.54104E+02 SP= 0.00E+00 SK= 0.00E+00
    29020 T=   997. E= -.22613512E+04 F= -.23169224E+04 EK= 0.55571E+02 SP= 0.00E+00 SK= 0.00E+00
    29030 T=  1027. E= -.22613458E+04 F= -.23185418E+04 EK= 0.57196E+02 SP= 0.00E+00 SK= 0.00E+00
    29040 T=  1023. E= -.22613440E+04 F= -.23183587E+04 EK= 0.57015E+02 SP= 0.00E+00 SK= 0.00E+00
    29050 T=   994. E= -.22613411E+04 F= -.23167148E+04 EK= 0.55374E+02 SP= 0.00E+00 SK= 0.00E+00
    29060 T=   964. E= -.22613449E+04 F= -.23150668E+04 EK= 0.53722E+02 SP= 0.00E+00 SK= 0.00E+00
    29070 T=   952. E= -.22613457E+04 F= -.23144098E+04 EK= 0.53064E+02 SP= 0.00E+00 SK= 0.00E+00
    29080 T=   955. E= -.22613481E+04 F= -.23145742E+04 EK= 0.53226E+02 SP= 0.00E+00 SK= 0.00E+00
    29090 T=   973. E= -.22613422E+04 F= -.23155420E+04 EK= 0.54200E+02 SP= 0.00E+00 SK= 0.00E+00
    29100 T=   973. E= -.22613419E+04 F= -.23155745E+04 EK= 0.54233E+02 SP= 0.00E+00 SK= 0.00E+00
    29110 T=   944. E= -.22613466E+04 F= -.23139180E+04 EK= 0.52571E+02 SP= 0.00E+00 SK= 0.00E+00
    29120 T=   934. E= -.22613491E+04 F= -.23133561E+04 EK= 0.52007E+02 SP= 0.00E+00 SK= 0.00E+00
    29130 T=   958. E= -.22613520E+04 F= -.23146990E+04 EK= 0.53347E+02 SP= 0.00E+00 SK= 0.00E+00
    29140 T=   978. E= -.22613521E+04 F= -.23158334E+04 EK= 0.54481E+02 SP= 0.00E+00 SK= 0.00E+00
    29150 T=   974. E= -.22613510E+04 F= -.23155912E+04 EK= 0.54240E+02 SP= 0.00E+00 SK= 0.00E+00
    29160 T=   963. E= -.22613536E+04 F= -.23149884E+04 EK= 0.53635E+02 SP= 0.00E+00 SK= 0.00E+00
    29170 T=   966. E= -.22613580E+04 F= -.23151777E+04 EK= 0.53820E+02 SP= 0.00E+00 SK= 0.00E+00
    29180 T=   978. E= -.22613592E+04 F= -.23158520E+04 EK= 0.54493E+02 SP= 0.00E+00 SK= 0.00E+00
    29190 T=   980. E= -.22613589E+04 F= -.23159596E+04 EK= 0.54601E+02 SP= 0.00E+00 SK= 0.00E+00
    29200 T=   963. E= -.22613583E+04 F= -.23150335E+04 EK= 0.53675E+02 SP= 0.00E+00 SK= 0.00E+00
    29210 T=   958. E= -.22613550E+04 F= -.23147106E+04 EK= 0.53356E+02 SP= 0.00E+00 SK= 0.00E+00
    29220 T=   961. E= -.22613504E+04 F= -.23148972E+04 EK= 0.53547E+02 SP= 0.00E+00 SK= 0.00E+00
    29230 T=   972. E= -.22613511E+04 F= -.23155007E+04 EK= 0.54150E+02 SP= 0.00E+00 SK= 0.00E+00
    29240 T=   982. E= -.22613513E+04 F= -.23160589E+04 EK= 0.54708E+02 SP= 0.00E+00 SK= 0.00E+00
    29250 T=   970. E= -.22613515E+04 F= -.23154020E+04 EK= 0.54050E+02 SP= 0.00E+00 SK= 0.00E+00
    29260 T=   947. E= -.22613506E+04 F= -.23141320E+04 EK= 0.52781E+02 SP= 0.00E+00 SK= 0.00E+00
    29270 T=   938. E= -.22613493E+04 F= -.23135958E+04 EK= 0.52247E+02 SP= 0.00E+00 SK= 0.00E+00
    29280 T=   948. E= -.22613467E+04 F= -.23141808E+04 EK= 0.52834E+02 SP= 0.00E+00 SK= 0.00E+00
    29290 T=   959. E= -.22613492E+04 F= -.23147539E+04 EK= 0.53405E+02 SP= 0.00E+00 SK= 0.00E+00
    29300 T=   958. E= -.22613543E+04 F= -.23147140E+04 EK= 0.53360E+02 SP= 0.00E+00 SK= 0.00E+00
    29310 T=   947. E= -.22613531E+04 F= -.23140868E+04 EK= 0.52734E+02 SP= 0.00E+00 SK= 0.00E+00
    29320 T=   934. E= -.22613504E+04 F= -.23134127E+04 EK= 0.52062E+02 SP= 0.00E+00 SK= 0.00E+00
    29330 T=   936. E= -.22613497E+04 F= -.23134722E+04 EK= 0.52122E+02 SP= 0.00E+00 SK= 0.00E+00
    29340 T=   960. E= -.22613446E+04 F= -.23148297E+04 EK= 0.53485E+02 SP= 0.00E+00 SK= 0.00E+00
    29350 T=  1002. E= -.22613459E+04 F= -.23171595E+04 EK= 0.55814E+02 SP= 0.00E+00 SK= 0.00E+00
    29360 T=  1034. E= -.22613522E+04 F= -.23189638E+04 EK= 0.57612E+02 SP= 0.00E+00 SK= 0.00E+00
    29370 T=  1040. E= -.22613561E+04 F= -.23193142E+04 EK= 0.57958E+02 SP= 0.00E+00 SK= 0.00E+00
    29380 T=  1029. E= -.22613551E+04 F= -.23186801E+04 EK= 0.57325E+02 SP= 0.00E+00 SK= 0.00E+00
    29390 T=  1007. E= -.22613485E+04 F= -.23174536E+04 EK= 0.56105E+02 SP= 0.00E+00 SK= 0.00E+00
    29400 T=   983. E= -.22613436E+04 F= -.23160813E+04 EK= 0.54738E+02 SP= 0.00E+00 SK= 0.00E+00
    29410 T=   982. E= -.22613448E+04 F= -.23160780E+04 EK= 0.54733E+02 SP= 0.00E+00 SK= 0.00E+00
Randomizing velocities, T =   970.
Randomizing velocities, T =   970.
    29420 T=   972. E= -.22631194E+04 F= -.23172448E+04 EK= 0.54125E+02 SP= 0.00E+00 SK= 0.00E+00
    29430 T=   978. E= -.22631167E+04 F= -.23176242E+04 EK= 0.54507E+02 SP= 0.00E+00 SK= 0.00E+00
    29440 T=   974. E= -.22631172E+04 F= -.23173872E+04 EK= 0.54270E+02 SP= 0.00E+00 SK= 0.00E+00
    29450 T=   961. E= -.22631120E+04 F= -.23166622E+04 EK= 0.53550E+02 SP= 0.00E+00 SK= 0.00E+00
    29460 T=   966. E= -.22631196E+04 F= -.23169161E+04 EK= 0.53796E+02 SP= 0.00E+00 SK= 0.00E+00
    29470 T=   966. E= -.22631190E+04 F= -.23169225E+04 EK= 0.53804E+02 SP= 0.00E+00 SK= 0.00E+00
    29480 T=   949. E= -.22631183E+04 F= -.23159607E+04 EK= 0.52842E+02 SP= 0.00E+00 SK= 0.00E+00
    29490 T=   928. E= -.22631162E+04 F= -.23147993E+04 EK= 0.51683E+02 SP= 0.00E+00 SK= 0.00E+00
    29500 T=   922. E= -.22631117E+04 F= -.23144658E+04 EK= 0.51354E+02 SP= 0.00E+00 SK= 0.00E+00
    29510 T=   921. E= -.22631120E+04 F= -.23143999E+04 EK= 0.51288E+02 SP= 0.00E+00 SK= 0.00E+00
    29520 T=   933. E= -.22631117E+04 F= -.23150725E+04 EK= 0.51961E+02 SP= 0.00E+00 SK= 0.00E+00
    29530 T=   957. E= -.22631120E+04 F= -.23164426E+04 EK= 0.53331E+02 SP= 0.00E+00 SK= 0.00E+00
    29540 T=   976. E= -.22631155E+04 F= -.23174727E+04 EK= 0.54357E+02 SP= 0.00E+00 SK= 0.00E+00
    29550 T=   971. E= -.22631160E+04 F= -.23171861E+04 EK= 0.54070E+02 SP= 0.00E+00 SK= 0.00E+00
    29560 T=   962. E= -.22631165E+04 F= -.23167348E+04 EK= 0.53618E+02 SP= 0.00E+00 SK= 0.00E+00
    29570 T=   951. E= -.22631183E+04 F= -.23161054E+04 EK= 0.52987E+02 SP= 0.00E+00 SK= 0.00E+00
    29580 T=   930. E= -.22631166E+04 F= -.23149065E+04 EK= 0.51790E+02 SP= 0.00E+00 SK= 0.00E+00
    29590 T=   925. E= -.22631112E+04 F= -.23146599E+04 EK= 0.51549E+02 SP= 0.00E+00 SK= 0.00E+00
    29600 T=   954. E= -.22631175E+04 F= -.23162717E+04 EK= 0.53154E+02 SP= 0.00E+00 SK= 0.00E+00
    29610 T=   971. E= -.22631131E+04 F= -.23172346E+04 EK= 0.54121E+02 SP= 0.00E+00 SK= 0.00E+00
    29620 T=   962. E= -.22631162E+04 F= -.23167098E+04 EK= 0.53594E+02 SP= 0.00E+00 SK= 0.00E+00
    29630 T=   948. E= -.22631107E+04 F= -.23159126E+04 EK= 0.52802E+02 SP= 0.00E+00 SK= 0.00E+00
Randomizing velocities, T =   970.
    29640 T=   982. E= -.22617454E+04 F= -.23164489E+04 EK= 0.54704E+02 SP= 0.00E+00 SK= 0.00E+00
    29650 T=   997. E= -.22617418E+04 F= -.23172610E+04 EK= 0.55519E+02 SP= 0.00E+00 SK= 0.00E+00
Randomizing velocities, T =   970.
    29660 T=   978. E= -.22632256E+04 F= -.23177289E+04 EK= 0.54503E+02 SP= 0.00E+00 SK= 0.00E+00
    29670 T=   983. E= -.22632283E+04 F= -.23180070E+04 EK= 0.54779E+02 SP= 0.00E+00 SK= 0.00E+00
    29680 T=   964. E= -.22632282E+04 F= -.23169071E+04 EK= 0.53679E+02 SP= 0.00E+00 SK= 0.00E+00
    29690 T=   931. E= -.22632237E+04 F= -.23151071E+04 EK= 0.51883E+02 SP= 0.00E+00 SK= 0.00E+00
    29700 T=   914. E= -.22632234E+04 F= -.23141258E+04 EK= 0.50902E+02 SP= 0.00E+00 SK= 0.00E+00
    29710 T=   916. E= -.22632255E+04 F= -.23142499E+04 EK= 0.51024E+02 SP= 0.00E+00 SK= 0.00E+00
    29720 T=   923. E= -.22632216E+04 F= -.23146328E+04 EK= 0.51411E+02 SP= 0.00E+00 SK= 0.00E+00
    29730 T=   925. E= -.22632203E+04 F= -.23147510E+04 EK= 0.51531E+02 SP= 0.00E+00 SK= 0.00E+00
    29740 T=   924. E= -.22632186E+04 F= -.23147224E+04 EK= 0.51504E+02 SP= 0.00E+00 SK= 0.00E+00
    29750 T=   925. E= -.22632221E+04 F= -.23147570E+04 EK= 0.51535E+02 SP= 0.00E+00 SK= 0.00E+00
    29760 T=   938. E= -.22632155E+04 F= -.23154761E+04 EK= 0.52261E+02 SP= 0.00E+00 SK= 0.00E+00
    29770 T=   957. E= -.22632110E+04 F= -.23165073E+04 EK= 0.53296E+02 SP= 0.00E+00 SK= 0.00E+00
    29780 T=   961. E= -.22632065E+04 F= -.23167187E+04 EK= 0.53512E+02 SP= 0.00E+00 SK= 0.00E+00
    29790 T=   954. E= -.22632066E+04 F= -.23163659E+04 EK= 0.53159E+02 SP= 0.00E+00 SK= 0.00E+00
    29800 T=   955. E= -.22632080E+04 F= -.23163930E+04 EK= 0.53185E+02 SP= 0.00E+00 SK= 0.00E+00
    29810 T=   957. E= -.22632013E+04 F= -.23164951E+04 EK= 0.53294E+02 SP= 0.00E+00 SK= 0.00E+00
    29820 T=   938. E= -.22631960E+04 F= -.23154701E+04 EK= 0.52274E+02 SP= 0.00E+00 SK= 0.00E+00
    29830 T=   921. E= -.22631970E+04 F= -.23144892E+04 EK= 0.51292E+02 SP= 0.00E+00 SK= 0.00E+00
    29840 T=   946. E= -.22631981E+04 F= -.23159103E+04 EK= 0.52712E+02 SP= 0.00E+00 SK= 0.00E+00
    29850 T=   980. E= -.22632006E+04 F= -.23177816E+04 EK= 0.54581E+02 SP= 0.00E+00 SK= 0.00E+00
    29860 T=   968. E= -.22631976E+04 F= -.23171129E+04 EK= 0.53915E+02 SP= 0.00E+00 SK= 0.00E+00
    29870 T=   913. E= -.22631936E+04 F= -.23140706E+04 EK= 0.50877E+02 SP= 0.00E+00 SK= 0.00E+00
    29880 T=   884. E= -.22631894E+04 F= -.23124515E+04 EK= 0.49262E+02 SP= 0.00E+00 SK= 0.00E+00
    29890 T=   916. E= -.22631923E+04 F= -.23142070E+04 EK= 0.51015E+02 SP= 0.00E+00 SK= 0.00E+00
    29900 T=   962. E= -.22631997E+04 F= -.23167765E+04 EK= 0.53577E+02 SP= 0.00E+00 SK= 0.00E+00
    29910 T=   972. E= -.22632003E+04 F= -.23173463E+04 EK= 0.54146E+02 SP= 0.00E+00 SK= 0.00E+00
    29920 T=   958. E= -.22631998E+04 F= -.23165634E+04 EK= 0.53364E+02 SP= 0.00E+00 SK= 0.00E+00
    29930 T=   969. E= -.22632036E+04 F= -.23171748E+04 EK= 0.53971E+02 SP= 0.00E+00 SK= 0.00E+00
    29940 T=   979. E= -.22631990E+04 F= -.23177570E+04 EK= 0.54558E+02 SP= 0.00E+00 SK= 0.00E+00
    29950 T=   970. E= -.22632021E+04 F= -.23172420E+04 EK= 0.54040E+02 SP= 0.00E+00 SK= 0.00E+00
    29960 T=   952. E= -.22632009E+04 F= -.23162622E+04 EK= 0.53061E+02 SP= 0.00E+00 SK= 0.00E+00
    29970 T=   950. E= -.22632021E+04 F= -.23161379E+04 EK= 0.52936E+02 SP= 0.00E+00 SK= 0.00E+00
    29980 T=   956. E= -.22632009E+04 F= -.23164550E+04 EK= 0.53254E+02 SP= 0.00E+00 SK= 0.00E+00
    29990 T=   953. E= -.22631959E+04 F= -.23163073E+04 EK= 0.53111E+02 SP= 0.00E+00 SK= 0.00E+00
At line 1940 of file md.f90
Fortran runtime error: Unit number is negative and unit was not already opened with OPEN(NEWUNIT=...)

Error termination. Backtrace:
At line 1940 of file md.f90
Fortran runtime error: Unit number is negative and unit was not already opened with OPEN(NEWUNIT=...)

Error termination. Backtrace:
At line 1940 of file md.f90
Fortran runtime error: Unit number is negative and unit was not already opened with OPEN(NEWUNIT=...)

Error termination. Backtrace:
    30000 T=   950. E= -.22631931E+04 F= -.23161109E+04 EK= 0.52918E+02 SP= 0.00E+00 SK= 0.00E+00
Rc and Rl:   5.500000  7.321000

Average number of steps between two list updates:  51.90
Average number of atoms in the shell:     0.14
#0  0x7f480f177d11 in ???
#1  0x7f480f178859 in ???
#2  0x7f480f17953f in ???
#3  0x560f4f8050bc in ???
#4  0x560f4f80092e in ???
#5  0x7f480ee0e082 in __libc_start_main
	at ../csu/libc-start.c:308
#6  0x560f4f80096d in ???
#7  0xffffffffffffffff in ???
#0  0x7f3464619d11 in ???
#1  0x7f346461a859 in ???
#2  0x7f346461b53f in ???
#3  0x55c9b0f510bc in ???
#4  0x55c9b0f4c92e in ???
#5  0x7f34642b0082 in __libc_start_main
	at ../csu/libc-start.c:308
#6  0x55c9b0f4c96d in ???
#7  0xffffffffffffffff in ???
--------------------------------------------------------------------------
mpirun has exited due to process rank 0 with PID 0 on
node Sam exiting improperly. There are three reasons this could occur:

1. this process did not call "init" before exiting, but others in
the job did. This can cause a job to hang indefinitely while it waits
for all processes to call "init". By rule, if one process calls "init",
then ALL processes must call "init" prior to termination.

2. this process called "init", but exited without calling "finalize".
By rule, all processes that call "init" MUST call "finalize" prior to
exiting or it will be considered an "abnormal termination"

3. this process called "MPI_Abort" or "orte_abort" and the mca parameter
orte_create_session_dirs is set to false. In this case, the run-time cannot
detect that the abort call was an abnormal termination. Hence, the only
error message you will receive is this one.

This may have caused other processes in the application to be
terminated by signals sent by mpirun (as reported here).

You can avoid this message by specifying -quiet on the mpirun command line.
--------------------------------------------------------------------------
