   4   4   0   0
  0.2228503E+02  0.7091058E-09  0.3545529E-09  0.3545529E-09  0.2000000E-14
   920.00000000000000     
  CAR 
 Al, 4 atoms                             
     11.67896170     -4.15738237  301      4.91301245      1.00000000
     -4.157  0.0000E+00  0.0000E+00
     -4.105  0.0000E+00  0.0000E+00
     -4.052  0.0000E+00  0.0000E+00
     -3.999  0.1239E-01  0.6538E-03
     -3.946  0.1171E-01  0.1272E-02
     -3.893  0.2277E-01  0.2474E-02
     -3.841  0.4424E-01  0.4810E-02
     -3.788  0.8581E-01  0.9339E-02
     -3.735  0.1659E+00  0.1810E-01
     -3.682  0.3187E+00  0.3492E-01
     -3.630  0.6050E+00  0.6686E-01
     -3.577  0.1123E+01  0.1261E+00
     -3.524  0.1999E+01  0.2316E+00
     -3.471  0.3308E+01  0.4063E+00
     -3.418  0.4867E+01  0.6632E+00
     -3.366  0.6048E+01  0.9825E+00
     -3.313  0.6116E+01  0.1305E+01
     -3.260  0.5024E+01  0.1571E+01
     -3.207  0.3468E+01  0.1754E+01
     -3.154  0.2117E+01  0.1865E+01
     -3.102  0.1196E+01  0.1928E+01
     -3.049  0.6466E+00  0.1963E+01
     -2.996  0.3412E+00  0.1981E+01
     -2.943  0.1778E+00  0.1990E+01
     -2.890  0.9200E-01  0.1995E+01
     -2.838  0.4745E-01  0.1997E+01
     -2.785  0.2443E-01  0.1999E+01
     -2.732  0.1256E-01  0.1999E+01
     -2.679  0.0000E+00  0.2000E+01
     -2.627  0.0000E+00  0.2000E+01
     -2.574  0.0000E+00  0.2000E+01
     -2.521  0.0000E+00  0.2000E+01
     -2.468  0.0000E+00  0.2000E+01
     -2.415  0.0000E+00  0.2000E+01
     -2.363  0.0000E+00  0.2000E+01
     -2.310  0.0000E+00  0.2000E+01
     -2.257  0.0000E+00  0.2000E+01
     -2.204  0.0000E+00  0.2000E+01
     -2.151  0.0000E+00  0.2000E+01
     -2.099  0.0000E+00  0.2000E+01
     -2.046  0.0000E+00  0.2000E+01
     -1.993  0.0000E+00  0.2000E+01
     -1.940  0.0000E+00  0.2000E+01
     -1.888  0.0000E+00  0.2000E+01
     -1.835  0.0000E+00  0.2000E+01
     -1.782  0.0000E+00  0.2000E+01
     -1.729  0.0000E+00  0.2000E+01
     -1.676  0.0000E+00  0.2000E+01
     -1.624  0.0000E+00  0.2000E+01
     -1.571  0.5228E-02  0.2000E+01
     -1.518  0.7866E-02  0.2001E+01
     -1.465  0.1238E-01  0.2001E+01
     -1.412  0.2407E-01  0.2003E+01
     -1.360  0.4676E-01  0.2005E+01
     -1.307  0.9067E-01  0.2010E+01
     -1.254  0.1752E+00  0.2019E+01
     -1.201  0.3364E+00  0.2037E+01
     -1.148  0.6375E+00  0.2071E+01
     -1.096  0.1180E+01  0.2133E+01
     -1.043  0.2090E+01  0.2243E+01
     -0.990  0.3430E+01  0.2424E+01
     -0.937  0.4982E+01  0.2687E+01
     -0.885  0.6092E+01  0.3009E+01
     -0.832  0.6058E+01  0.3329E+01
     -0.779  0.4904E+01  0.3587E+01
     -0.726  0.3350E+01  0.3764E+01
     -0.673  0.2031E+01  0.3871E+01
     -0.621  0.1143E+01  0.3932E+01
     -0.568  0.6167E+00  0.3964E+01
     -0.515  0.3251E+00  0.3982E+01
     -0.462  0.1693E+00  0.3990E+01
     -0.409  0.8757E-01  0.3995E+01
     -0.357  0.4515E-01  0.3997E+01
     -0.304  0.2324E-01  0.3999E+01
     -0.251  0.3328E-02  0.4000E+01
     -0.198  0.0000E+00  0.4000E+01
     -0.146  0.0000E+00  0.4000E+01
     -0.093  0.0000E+00  0.4000E+01
     -0.040  0.0000E+00  0.4000E+01
      0.013  0.0000E+00  0.4000E+01
      0.066  0.0000E+00  0.4000E+01
      0.118  0.0000E+00  0.4000E+01
      0.171  0.0000E+00  0.4000E+01
      0.224  0.0000E+00  0.4000E+01
      0.277  0.0000E+00  0.4000E+01
      0.330  0.0000E+00  0.4000E+01
      0.382  0.0000E+00  0.4000E+01
      0.435  0.0000E+00  0.4000E+01
      0.488  0.0000E+00  0.4000E+01
      0.541  0.0000E+00  0.4000E+01
      0.594  0.0000E+00  0.4000E+01
      0.646  0.0000E+00  0.4000E+01
      0.699  0.0000E+00  0.4000E+01
      0.752  0.0000E+00  0.4000E+01
      0.805  0.0000E+00  0.4000E+01
      0.857  0.1924E-02  0.4000E+01
      0.910  0.7515E-02  0.4000E+01
      0.963  0.1179E-01  0.4001E+01
      1.016  0.2006E-01  0.4002E+01
      1.069  0.3897E-01  0.4004E+01
      1.121  0.7560E-01  0.4008E+01
      1.174  0.1462E+00  0.4016E+01
      1.227  0.2810E+00  0.4031E+01
      1.280  0.5340E+00  0.4059E+01
      1.333  0.9931E+00  0.4111E+01
      1.385  0.1776E+01  0.4205E+01
      1.438  0.2965E+01  0.4362E+01
      1.491  0.4439E+01  0.4596E+01
      1.544  0.5694E+01  0.4897E+01
      1.596  0.6053E+01  0.5216E+01
      1.649  0.5295E+01  0.5496E+01
      1.702  0.3892E+01  0.5701E+01
      1.755  0.2503E+01  0.5833E+01
      1.808  0.1467E+01  0.5911E+01
      1.860  0.8187E+00  0.5954E+01
      1.913  0.4517E+00  0.5978E+01
      1.966  0.2668E+00  0.5992E+01
      2.019  0.2028E+00  0.6002E+01
      2.072  0.2223E+00  0.6014E+01
      2.124  0.3400E+00  0.6032E+01
      2.177  0.5995E+00  0.6064E+01
      2.230  0.1091E+01  0.6122E+01
      2.283  0.1938E+01  0.6225E+01
      2.336  0.3227E+01  0.6395E+01
      2.388  0.4839E+01  0.6650E+01
      2.441  0.6329E+01  0.6984E+01
      2.494  0.7170E+01  0.7363E+01
      2.547  0.7304E+01  0.7748E+01
      2.599  0.7236E+01  0.8130E+01
      2.652  0.7363E+01  0.8519E+01
      2.705  0.7407E+01  0.8910E+01
      2.758  0.6763E+01  0.9267E+01
      2.811  0.5332E+01  0.9549E+01
      2.863  0.3640E+01  0.9741E+01
      2.916  0.2222E+01  0.9858E+01
      2.969  0.1259E+01  0.9924E+01
      3.022  0.6821E+00  0.9960E+01
      3.075  0.3555E+00  0.9980E+01
      3.127  0.1831E+00  0.9990E+01
      3.180  0.9315E-01  0.9995E+01
      3.233  0.4806E-01  0.9997E+01
      3.286  0.2475E-01  0.9999E+01
      3.338  0.4795E-02  0.1000E+02
      3.391  0.0000E+00  0.1000E+02
      3.444  0.0000E+00  0.1000E+02
      3.497  0.0000E+00  0.1000E+02
      3.550  0.0000E+00  0.1000E+02
      3.602  0.0000E+00  0.1000E+02
      3.655  0.0000E+00  0.1000E+02
      3.708  0.0000E+00  0.1000E+02
      3.761  0.0000E+00  0.1000E+02
      3.814  0.0000E+00  0.1000E+02
      3.866  0.0000E+00  0.1000E+02
      3.919  0.2771E-02  0.1000E+02
      3.972  0.4384E-02  0.1000E+02
      4.025  0.6764E-02  0.1000E+02
      4.078  0.1315E-01  0.1000E+02
      4.130  0.3059E-01  0.1000E+02
      4.183  0.5421E-01  0.1001E+02
      4.236  0.1046E+00  0.1001E+02
      4.289  0.2001E+00  0.1002E+02
      4.341  0.3796E+00  0.1004E+02
      4.394  0.6930E+00  0.1008E+02
      4.447  0.1212E+01  0.1014E+02
      4.500  0.1958E+01  0.1025E+02
      4.553  0.2854E+01  0.1040E+02
      4.605  0.3716E+01  0.1059E+02
      4.658  0.4372E+01  0.1082E+02
      4.711  0.4796E+01  0.1108E+02
      4.764  0.4973E+01  0.1134E+02
      4.817  0.4827E+01  0.1159E+02
      4.869  0.4393E+01  0.1183E+02
      4.922  0.3961E+01  0.1203E+02
      4.975  0.3783E+01  0.1223E+02
      5.028  0.3848E+01  0.1244E+02
      5.080  0.4037E+01  0.1265E+02
      5.133  0.4282E+01  0.1288E+02
      5.186  0.4485E+01  0.1311E+02
      5.239  0.4481E+01  0.1335E+02
      5.292  0.4055E+01  0.1356E+02
      5.344  0.3203E+01  0.1373E+02
      5.397  0.2213E+01  0.1385E+02
      5.450  0.1402E+01  0.1393E+02
      5.503  0.9062E+00  0.1397E+02
      5.556  0.7036E+00  0.1401E+02
      5.608  0.7542E+00  0.1405E+02
      5.661  0.1028E+01  0.1410E+02
      5.714  0.1474E+01  0.1418E+02
      5.767  0.1961E+01  0.1429E+02
      5.820  0.2364E+01  0.1441E+02
      5.872  0.2731E+01  0.1455E+02
      5.925  0.3274E+01  0.1473E+02
      5.978  0.4050E+01  0.1494E+02
      6.031  0.4695E+01  0.1519E+02
      6.083  0.4697E+01  0.1544E+02
      6.136  0.3933E+01  0.1565E+02
      6.189  0.2796E+01  0.1579E+02
      6.242  0.1752E+01  0.1589E+02
      6.295  0.1009E+01  0.1594E+02
      6.347  0.5514E+00  0.1597E+02
      6.400  0.2928E+00  0.1598E+02
      6.453  0.1514E+00  0.1599E+02
      6.506  0.7848E-01  0.1600E+02
      6.559  0.4051E-01  0.1600E+02
      6.611  0.2087E-01  0.1600E+02
      6.664  0.5259E-02  0.1600E+02
      6.717  0.1987E-02  0.1600E+02
      6.770  0.1880E-02  0.1600E+02
      6.822  0.9001E-02  0.1600E+02
      6.875  0.1216E-01  0.1600E+02
      6.928  0.2363E-01  0.1600E+02
      6.981  0.4895E-01  0.1601E+02
      7.034  0.9380E-01  0.1601E+02
      7.086  0.1783E+00  0.1602E+02
      7.139  0.3414E+00  0.1604E+02
      7.192  0.6382E+00  0.1607E+02
      7.245  0.1149E+01  0.1613E+02
      7.298  0.1956E+01  0.1624E+02
      7.350  0.3051E+01  0.1640E+02
      7.403  0.4231E+01  0.1662E+02
      7.456  0.5156E+01  0.1689E+02
      7.509  0.5577E+01  0.1719E+02
      7.562  0.5576E+01  0.1748E+02
      7.614  0.5448E+01  0.1777E+02
      7.667  0.5364E+01  0.1805E+02
      7.720  0.5317E+01  0.1833E+02
      7.773  0.5272E+01  0.1861E+02
      7.825  0.5162E+01  0.1888E+02
      7.878  0.4836E+01  0.1914E+02
      7.931  0.4267E+01  0.1936E+02
      7.984  0.3604E+01  0.1955E+02
      8.037  0.2931E+01  0.1971E+02
      8.089  0.2243E+01  0.1983E+02
      8.142  0.1605E+01  0.1991E+02
      8.195  0.1176E+01  0.1997E+02
      8.248  0.1046E+01  0.2003E+02
      8.301  0.1273E+01  0.2010E+02
      8.353  0.1916E+01  0.2020E+02
      8.406  0.2998E+01  0.2036E+02
      8.459  0.4342E+01  0.2059E+02
      8.512  0.5466E+01  0.2087E+02
      8.564  0.5805E+01  0.2118E+02
      8.617  0.5200E+01  0.2146E+02
      8.670  0.3993E+01  0.2167E+02
      8.723  0.2692E+01  0.2181E+02
      8.776  0.1639E+01  0.2190E+02
      8.828  0.9289E+00  0.2194E+02
      8.881  0.5039E+00  0.2197E+02
      8.934  0.2665E+00  0.2198E+02
      8.987  0.1390E+00  0.2199E+02
      9.040  0.7201E-01  0.2200E+02
      9.092  0.3715E-01  0.2200E+02
      9.145  0.1414E-01  0.2200E+02
      9.198  0.5132E-02  0.2200E+02
      9.251  0.0000E+00  0.2200E+02
      9.304  0.0000E+00  0.2200E+02
      9.356  0.0000E+00  0.2200E+02
      9.409  0.0000E+00  0.2200E+02
      9.462  0.0000E+00  0.2200E+02
      9.515  0.0000E+00  0.2200E+02
      9.567  0.0000E+00  0.2200E+02
      9.620  0.0000E+00  0.2200E+02
      9.673  0.0000E+00  0.2200E+02
      9.726  0.0000E+00  0.2200E+02
      9.779  0.0000E+00  0.2200E+02
      9.831  0.2582E-02  0.2200E+02
      9.884  0.4621E-02  0.2200E+02
      9.937  0.6810E-02  0.2200E+02
      9.990  0.1562E-01  0.2200E+02
     10.043  0.2796E-01  0.2200E+02
     10.095  0.5417E-01  0.2201E+02
     10.148  0.1046E+00  0.2201E+02
     10.201  0.2019E+00  0.2202E+02
     10.254  0.3795E+00  0.2204E+02
     10.306  0.6975E+00  0.2208E+02
     10.359  0.1223E+01  0.2214E+02
     10.412  0.1985E+01  0.2225E+02
     10.465  0.2887E+01  0.2240E+02
     10.518  0.3668E+01  0.2259E+02
     10.570  0.4060E+01  0.2281E+02
     10.623  0.3980E+01  0.2302E+02
     10.676  0.3540E+01  0.2321E+02
     10.729  0.2954E+01  0.2336E+02
     10.782  0.2473E+01  0.2349E+02
     10.834  0.2219E+01  0.2361E+02
     10.887  0.2073E+01  0.2372E+02
     10.940  0.1815E+01  0.2381E+02
     10.993  0.1387E+01  0.2389E+02
     11.046  0.9218E+00  0.2394E+02
     11.098  0.5515E+00  0.2397E+02
     11.151  0.3065E+00  0.2398E+02
     11.204  0.1625E+00  0.2399E+02
     11.257  0.8556E-01  0.2400E+02
     11.309  0.4243E-01  0.2400E+02
     11.362  0.2195E-01  0.2400E+02
     11.415  0.1132E-01  0.2400E+02
     11.468  0.5826E-02  0.2400E+02
     11.521  0.0000E+00  0.2400E+02
     11.573  0.0000E+00  0.2400E+02
     11.626  0.0000E+00  0.2400E+02
     11.679  0.0000E+00  0.2400E+02
     11.65093478     -3.97822106  301      4.91298478      1.00000000
     -3.978  0.0000E+00  0.0000E+00
     -3.926  0.0000E+00  0.0000E+00
     -3.874  0.0000E+00  0.0000E+00
     -3.822  0.1205E-01  0.6278E-03
     -3.770  0.1119E-01  0.1211E-02
     -3.718  0.2157E-01  0.2335E-02
     -3.666  0.4155E-01  0.4499E-02
     -3.614  0.7991E-01  0.8663E-02
     -3.561  0.1532E+00  0.1665E-01
     -3.509  0.2922E+00  0.3187E-01
     -3.457  0.5512E+00  0.6059E-01
     -3.405  0.1019E+01  0.1137E+00
     -3.353  0.1817E+01  0.2083E+00
     -3.301  0.3035E+01  0.3664E+00
     -3.249  0.4562E+01  0.6041E+00
     -3.197  0.5872E+01  0.9100E+00
     -3.145  0.6217E+01  0.1234E+01
     -3.093  0.5358E+01  0.1513E+01
     -3.040  0.3858E+01  0.1714E+01
     -2.988  0.2433E+01  0.1841E+01
     -2.936  0.1409E+01  0.1914E+01
     -2.884  0.7753E+00  0.1955E+01
     -2.832  0.4149E+00  0.1976E+01
     -2.780  0.2187E+00  0.1988E+01
     -2.728  0.1143E+00  0.1994E+01
     -2.676  0.5953E-01  0.1997E+01
     -2.624  0.3093E-01  0.1998E+01
     -2.572  0.1605E-01  0.1999E+01
     -2.519  0.0000E+00  0.2000E+01
     -2.467  0.0000E+00  0.2000E+01
     -2.415  0.0000E+00  0.2000E+01
     -2.363  0.0000E+00  0.2000E+01
     -2.311  0.0000E+00  0.2000E+01
     -2.259  0.0000E+00  0.2000E+01
     -2.207  0.0000E+00  0.2000E+01
     -2.155  0.0000E+00  0.2000E+01
     -2.103  0.0000E+00  0.2000E+01
     -2.051  0.0000E+00  0.2000E+01
     -1.999  0.0000E+00  0.2000E+01
     -1.946  0.0000E+00  0.2000E+01
     -1.894  0.0000E+00  0.2000E+01
     -1.842  0.0000E+00  0.2000E+01
     -1.790  0.0000E+00  0.2000E+01
     -1.738  0.0000E+00  0.2000E+01
     -1.686  0.0000E+00  0.2000E+01
     -1.634  0.0000E+00  0.2000E+01
     -1.582  0.8912E-02  0.2000E+01
     -1.530  0.8278E-02  0.2001E+01
     -1.478  0.1596E-01  0.2002E+01
     -1.425  0.3075E-01  0.2003E+01
     -1.373  0.5919E-01  0.2006E+01
     -1.321  0.1137E+00  0.2012E+01
     -1.269  0.2173E+00  0.2024E+01
     -1.217  0.4122E+00  0.2045E+01
     -1.165  0.7696E+00  0.2085E+01
     -1.113  0.1396E+01  0.2158E+01
     -1.061  0.2408E+01  0.2283E+01
     -1.009  0.3810E+01  0.2482E+01
     -0.957  0.5288E+01  0.2757E+01
     -0.904  0.6156E+01  0.3078E+01
     -0.852  0.5863E+01  0.3383E+01
     -0.800  0.4606E+01  0.3623E+01
     -0.748  0.3097E+01  0.3785E+01
     -0.696  0.1869E+01  0.3882E+01
     -0.644  0.1054E+01  0.3937E+01
     -0.592  0.5717E+00  0.3967E+01
     -0.540  0.3035E+00  0.3983E+01
     -0.488  0.1593E+00  0.3991E+01
     -0.436  0.8312E-01  0.3995E+01
     -0.384  0.4323E-01  0.3998E+01
     -0.331  0.2245E-01  0.3999E+01
     -0.279  0.6705E-02  0.4000E+01
     -0.227  0.0000E+00  0.4000E+01
     -0.175  0.0000E+00  0.4000E+01
     -0.123  0.0000E+00  0.4000E+01
     -0.071  0.0000E+00  0.4000E+01
     -0.019  0.0000E+00  0.4000E+01
      0.033  0.0000E+00  0.4000E+01
      0.085  0.0000E+00  0.4000E+01
      0.137  0.0000E+00  0.4000E+01
      0.190  0.0000E+00  0.4000E+01
      0.242  0.0000E+00  0.4000E+01
      0.294  0.0000E+00  0.4000E+01
      0.346  0.0000E+00  0.4000E+01
      0.398  0.0000E+00  0.4000E+01
      0.450  0.0000E+00  0.4000E+01
      0.502  0.0000E+00  0.4000E+01
      0.554  0.0000E+00  0.4000E+01
      0.606  0.0000E+00  0.4000E+01
      0.658  0.0000E+00  0.4000E+01
      0.711  0.0000E+00  0.4000E+01
      0.763  0.2898E-02  0.4000E+01
      0.815  0.6930E-02  0.4001E+01
      0.867  0.9126E-02  0.4001E+01
      0.919  0.1967E-01  0.4002E+01
      0.971  0.3579E-01  0.4004E+01
      1.023  0.6877E-01  0.4007E+01
      1.075  0.1316E+00  0.4014E+01
      1.127  0.2501E+00  0.4027E+01
      1.179  0.4690E+00  0.4052E+01
      1.231  0.8579E+00  0.4096E+01
      1.284  0.1503E+01  0.4175E+01
      1.336  0.2457E+01  0.4303E+01
      1.388  0.3632E+01  0.4492E+01
      1.440  0.4727E+01  0.4738E+01
      1.492  0.5346E+01  0.5017E+01
      1.544  0.5254E+01  0.5291E+01
      1.596  0.4531E+01  0.5527E+01
      1.648  0.3459E+01  0.5707E+01
      1.700  0.2356E+01  0.5830E+01
      1.752  0.1456E+01  0.5905E+01
      1.805  0.8378E+00  0.5949E+01
      1.857  0.4605E+00  0.5973E+01
      1.909  0.2506E+00  0.5986E+01
      1.961  0.1338E+00  0.5993E+01
      2.013  0.8097E-01  0.5997E+01
      2.065  0.5285E-01  0.6000E+01
      2.117  0.5259E-01  0.6003E+01
      2.169  0.8397E-01  0.6008E+01
      2.221  0.1502E+00  0.6016E+01
      2.273  0.2802E+00  0.6030E+01
      2.326  0.5254E+00  0.6058E+01
      2.378  0.9694E+00  0.6108E+01
      2.430  0.1723E+01  0.6198E+01
      2.482  0.2880E+01  0.6348E+01
      2.534  0.4383E+01  0.6576E+01
      2.586  0.5915E+01  0.6885E+01
      2.638  0.7029E+01  0.7251E+01
      2.690  0.7524E+01  0.7643E+01
      2.742  0.7613E+01  0.8039E+01
      2.794  0.7601E+01  0.8435E+01
      2.847  0.7430E+01  0.8823E+01
      2.899  0.6785E+01  0.9176E+01
      2.951  0.5573E+01  0.9466E+01
      3.003  0.4067E+01  0.9678E+01
      3.055  0.2659E+01  0.9817E+01
      3.107  0.1592E+01  0.9900E+01
      3.159  0.8969E+00  0.9946E+01
      3.211  0.4841E+00  0.9972E+01
      3.263  0.2556E+00  0.9985E+01
      3.315  0.1297E+00  0.9993E+01
      3.367  0.6770E-01  0.9996E+01
      3.420  0.3522E-01  0.9998E+01
      3.472  0.1370E-01  0.9999E+01
      3.524  0.4813E-02  0.1000E+02
      3.576  0.0000E+00  0.1000E+02
      3.628  0.0000E+00  0.1000E+02
      3.680  0.0000E+00  0.1000E+02
      3.732  0.0000E+00  0.1000E+02
      3.784  0.0000E+00  0.1000E+02
      3.836  0.0000E+00  0.1000E+02
      3.888  0.2133E-02  0.1000E+02
      3.941  0.7054E-02  0.1000E+02
      3.993  0.8532E-02  0.1000E+02
      4.045  0.1644E-01  0.1000E+02
      4.097  0.3341E-01  0.1000E+02
      4.149  0.6250E-01  0.1001E+02
      4.201  0.1198E+00  0.1001E+02
      4.253  0.2283E+00  0.1002E+02
      4.305  0.4300E+00  0.1005E+02
      4.357  0.7931E+00  0.1009E+02
      4.409  0.1410E+01  0.1016E+02
      4.462  0.2344E+01  0.1028E+02
      4.514  0.3525E+01  0.1047E+02
      4.566  0.4597E+01  0.1071E+02
      4.618  0.5094E+01  0.1097E+02
      4.670  0.4869E+01  0.1123E+02
      4.722  0.4240E+01  0.1145E+02
      4.774  0.3572E+01  0.1163E+02
      4.826  0.2980E+01  0.1179E+02
      4.878  0.2512E+01  0.1192E+02
      4.930  0.2328E+01  0.1204E+02
      4.982  0.2593E+01  0.1218E+02
      5.035  0.3322E+01  0.1235E+02
      5.087  0.4325E+01  0.1257E+02
      5.139  0.5242E+01  0.1285E+02
      5.191  0.5651E+01  0.1314E+02
      5.243  0.5274E+01  0.1342E+02
      5.295  0.4213E+01  0.1364E+02
      5.347  0.2923E+01  0.1379E+02
      5.399  0.1823E+01  0.1388E+02
      5.451  0.1061E+01  0.1394E+02
      5.503  0.6147E+00  0.1397E+02
      5.556  0.3904E+00  0.1399E+02
      5.608  0.3250E+00  0.1401E+02
      5.660  0.3886E+00  0.1403E+02
      5.712  0.5916E+00  0.1406E+02
      5.764  0.9667E+00  0.1411E+02
      5.816  0.1506E+01  0.1419E+02
      5.868  0.2133E+01  0.1430E+02
      5.920  0.2728E+01  0.1444E+02
      5.972  0.3245E+01  0.1461E+02
      6.024  0.3703E+01  0.1481E+02
      6.077  0.3974E+01  0.1501E+02
      6.129  0.3861E+01  0.1521E+02
      6.181  0.3431E+01  0.1539E+02
      6.233  0.2961E+01  0.1555E+02
      6.285  0.2561E+01  0.1568E+02
      6.337  0.2121E+01  0.1579E+02
      6.389  0.1584E+01  0.1587E+02
      6.441  0.1050E+01  0.1593E+02
      6.493  0.6316E+00  0.1596E+02
      6.545  0.3541E+00  0.1598E+02
      6.598  0.1946E+00  0.1599E+02
      6.650  0.1043E+00  0.1599E+02
      6.702  0.5787E-01  0.1600E+02
      6.754  0.3929E-01  0.1600E+02
      6.806  0.3706E-01  0.1600E+02
      6.858  0.5318E-01  0.1600E+02
      6.910  0.9256E-01  0.1601E+02
      6.962  0.1697E+00  0.1602E+02
      7.014  0.3195E+00  0.1604E+02
      7.066  0.5942E+00  0.1607E+02
      7.118  0.1051E+01  0.1612E+02
      7.171  0.1763E+01  0.1621E+02
      7.223  0.2711E+01  0.1635E+02
      7.275  0.3761E+01  0.1655E+02
      7.327  0.4706E+01  0.1680E+02
      7.379  0.5337E+01  0.1707E+02
      7.431  0.5458E+01  0.1736E+02
      7.483  0.5023E+01  0.1762E+02
      7.535  0.4331E+01  0.1784E+02
      7.587  0.3893E+01  0.1805E+02
      7.639  0.4024E+01  0.1826E+02
      7.692  0.4627E+01  0.1850E+02
      7.744  0.5273E+01  0.1877E+02
      7.796  0.5535E+01  0.1906E+02
      7.848  0.5234E+01  0.1933E+02
      7.900  0.4415E+01  0.1956E+02
      7.952  0.3294E+01  0.1974E+02
      8.004  0.2189E+01  0.1985E+02
      8.056  0.1338E+01  0.1992E+02
      8.108  0.7892E+00  0.1996E+02
      8.160  0.4999E+00  0.1999E+02
      8.213  0.4020E+00  0.2001E+02
      8.265  0.4699E+00  0.2003E+02
      8.317  0.7273E+00  0.2007E+02
      8.369  0.1241E+01  0.2014E+02
      8.421  0.2118E+01  0.2025E+02
      8.473  0.3366E+01  0.2042E+02
      8.525  0.4757E+01  0.2067E+02
      8.577  0.5750E+01  0.2097E+02
      8.629  0.5825E+01  0.2127E+02
      8.681  0.4961E+01  0.2153E+02
      8.733  0.3624E+01  0.2172E+02
      8.786  0.2339E+01  0.2184E+02
      8.838  0.1382E+01  0.2191E+02
      8.890  0.7712E+00  0.2195E+02
      8.942  0.4161E+00  0.2198E+02
      8.994  0.2203E+00  0.2199E+02
      9.046  0.1155E+00  0.2199E+02
      9.098  0.6022E-01  0.2200E+02
      9.150  0.3131E-01  0.2200E+02
      9.202  0.1152E-01  0.2200E+02
      9.254  0.3944E-02  0.2200E+02
      9.307  0.0000E+00  0.2200E+02
      9.359  0.0000E+00  0.2200E+02
      9.411  0.0000E+00  0.2200E+02
      9.463  0.0000E+00  0.2200E+02
      9.515  0.0000E+00  0.2200E+02
      9.567  0.0000E+00  0.2200E+02
      9.619  0.0000E+00  0.2200E+02
      9.671  0.2054E-02  0.2200E+02
      9.723  0.4050E-02  0.2200E+02
      9.775  0.8478E-02  0.2200E+02
      9.828  0.1354E-01  0.2200E+02
      9.880  0.2607E-01  0.2200E+02
      9.932  0.5014E-01  0.2201E+02
      9.984  0.9617E-01  0.2201E+02
     10.036  0.1834E+00  0.2202E+02
     10.088  0.3462E+00  0.2204E+02
     10.140  0.6409E+00  0.2207E+02
     10.192  0.1148E+01  0.2213E+02
     10.244  0.1931E+01  0.2223E+02
     10.296  0.2959E+01  0.2239E+02
     10.349  0.3966E+01  0.2259E+02
     10.401  0.4502E+01  0.2283E+02
     10.453  0.4262E+01  0.2305E+02
     10.505  0.3399E+01  0.2323E+02
     10.557  0.2377E+01  0.2335E+02
     10.609  0.1576E+01  0.2343E+02
     10.661  0.1130E+01  0.2349E+02
     10.713  0.1020E+01  0.2354E+02
     10.765  0.1171E+01  0.2361E+02
     10.817  0.1441E+01  0.2368E+02
     10.869  0.1612E+01  0.2376E+02
     10.922  0.1514E+01  0.2384E+02
     10.974  0.1180E+01  0.2390E+02
     11.026  0.7837E+00  0.2395E+02
     11.078  0.4687E+00  0.2397E+02
     11.130  0.2637E+00  0.2398E+02
     11.182  0.1429E+00  0.2399E+02
     11.234  0.7578E-01  0.2400E+02
     11.286  0.3976E-01  0.2400E+02
     11.338  0.2074E-01  0.2400E+02
     11.390  0.1079E-01  0.2400E+02
     11.443  0.5600E-02  0.2400E+02
     11.495  0.0000E+00  0.2400E+02
     11.547  0.0000E+00  0.2400E+02
     11.599  0.0000E+00  0.2400E+02
     11.651  0.0000E+00  0.2400E+02
     11.71572319     -3.84765815  301      4.78036614      1.00000000
     -3.848  0.0000E+00  0.0000E+00
     -3.796  0.0000E+00  0.0000E+00
     -3.744  0.0000E+00  0.0000E+00
     -3.692  0.1173E-01  0.6085E-03
     -3.640  0.1083E-01  0.1170E-02
     -3.588  0.2082E-01  0.2251E-02
     -3.536  0.4000E-01  0.4326E-02
     -3.485  0.7672E-01  0.8306E-02
     -3.433  0.1467E+00  0.1592E-01
     -3.381  0.2792E+00  0.3040E-01
     -3.329  0.5259E+00  0.5768E-01
     -3.277  0.9718E+00  0.1081E+00
     -3.225  0.1734E+01  0.1981E+00
     -3.173  0.2911E+01  0.3491E+00
     -3.121  0.4418E+01  0.5783E+00
     -3.069  0.5776E+01  0.8779E+00
     -3.018  0.6239E+01  0.1202E+01
     -2.966  0.5492E+01  0.1486E+01
     -2.914  0.4029E+01  0.1696E+01
     -2.862  0.2578E+01  0.1829E+01
     -2.810  0.1508E+01  0.1907E+01
     -2.758  0.8357E+00  0.1951E+01
     -2.706  0.4496E+00  0.1974E+01
     -2.654  0.2379E+00  0.1986E+01
     -2.603  0.1249E+00  0.1993E+01
     -2.551  0.6522E-01  0.1996E+01
     -2.499  0.3398E-01  0.1998E+01
     -2.447  0.1769E-01  0.1999E+01
     -2.395  0.0000E+00  0.2000E+01
     -2.343  0.0000E+00  0.2000E+01
     -2.291  0.0000E+00  0.2000E+01
     -2.239  0.0000E+00  0.2000E+01
     -2.188  0.0000E+00  0.2000E+01
     -2.136  0.0000E+00  0.2000E+01
     -2.084  0.0000E+00  0.2000E+01
     -2.032  0.0000E+00  0.2000E+01
     -1.980  0.0000E+00  0.2000E+01
     -1.928  0.0000E+00  0.2000E+01
     -1.876  0.0000E+00  0.2000E+01
     -1.824  0.0000E+00  0.2000E+01
     -1.773  0.7722E-02  0.2000E+01
     -1.721  0.1030E-01  0.2001E+01
     -1.669  0.1664E-01  0.2002E+01
     -1.617  0.3196E-01  0.2003E+01
     -1.565  0.6134E-01  0.2007E+01
     -1.513  0.1174E+00  0.2013E+01
     -1.461  0.2238E+00  0.2024E+01
     -1.409  0.4230E+00  0.2046E+01
     -1.358  0.7865E+00  0.2087E+01
     -1.306  0.1420E+01  0.2161E+01
     -1.254  0.2433E+01  0.2287E+01
     -1.202  0.3824E+01  0.2485E+01
     -1.150  0.5274E+01  0.2759E+01
     -1.098  0.6120E+01  0.3076E+01
     -1.046  0.5839E+01  0.3379E+01
     -0.994  0.4614E+01  0.3619E+01
     -0.942  0.3126E+01  0.3781E+01
     -0.891  0.1900E+01  0.3879E+01
     -0.839  0.1078E+01  0.3935E+01
     -0.787  0.5873E+00  0.3966E+01
     -0.735  0.3130E+00  0.3982E+01
     -0.683  0.1649E+00  0.3991E+01
     -0.631  0.8628E-01  0.3995E+01
     -0.579  0.4501E-01  0.3997E+01
     -0.527  0.2344E-01  0.3999E+01
     -0.476  0.7428E-02  0.4000E+01
     -0.424  0.0000E+00  0.4000E+01
     -0.372  0.0000E+00  0.4000E+01
     -0.320  0.0000E+00  0.4000E+01
     -0.268  0.0000E+00  0.4000E+01
     -0.216  0.0000E+00  0.4000E+01
     -0.164  0.0000E+00  0.4000E+01
     -0.112  0.0000E+00  0.4000E+01
     -0.061  0.0000E+00  0.4000E+01
     -0.009  0.0000E+00  0.4000E+01
      0.043  0.0000E+00  0.4000E+01
      0.095  0.0000E+00  0.4000E+01
      0.147  0.0000E+00  0.4000E+01
      0.199  0.0000E+00  0.4000E+01
      0.251  0.0000E+00  0.4000E+01
      0.303  0.0000E+00  0.4000E+01
      0.354  0.0000E+00  0.4000E+01
      0.406  0.0000E+00  0.4000E+01
      0.458  0.0000E+00  0.4000E+01
      0.510  0.0000E+00  0.4000E+01
      0.562  0.0000E+00  0.4000E+01
      0.614  0.0000E+00  0.4000E+01
      0.666  0.0000E+00  0.4000E+01
      0.718  0.2533E-02  0.4000E+01
      0.769  0.4598E-02  0.4000E+01
      0.821  0.8371E-02  0.4001E+01
      0.873  0.1430E-01  0.4002E+01
      0.925  0.2962E-01  0.4003E+01
      0.977  0.5464E-01  0.4006E+01
      1.029  0.1044E+00  0.4011E+01
      1.081  0.1981E+00  0.4022E+01
      1.133  0.3717E+00  0.4041E+01
      1.185  0.6820E+00  0.4076E+01
      1.236  0.1204E+01  0.4139E+01
      1.288  0.1995E+01  0.4242E+01
      1.340  0.3010E+01  0.4398E+01
      1.392  0.4035E+01  0.4608E+01
      1.444  0.4763E+01  0.4855E+01
      1.496  0.4997E+01  0.5114E+01
      1.548  0.4723E+01  0.5359E+01
      1.600  0.4043E+01  0.5569E+01
      1.651  0.3116E+01  0.5730E+01
      1.703  0.2150E+01  0.5842E+01
      1.755  0.1344E+01  0.5912E+01
      1.807  0.7802E+00  0.5952E+01
      1.859  0.4316E+00  0.5975E+01
      1.911  0.2320E+00  0.5987E+01
      1.963  0.1245E+00  0.5993E+01
      2.015  0.6559E-01  0.5997E+01
      2.066  0.3674E-01  0.5999E+01
      2.118  0.3020E-01  0.6001E+01
      2.170  0.3172E-01  0.6002E+01
      2.222  0.5249E-01  0.6005E+01
      2.274  0.9645E-01  0.6010E+01
      2.326  0.1851E+00  0.6020E+01
      2.378  0.3472E+00  0.6038E+01
      2.430  0.6488E+00  0.6072E+01
      2.481  0.1177E+01  0.6133E+01
      2.533  0.2035E+01  0.6238E+01
      2.585  0.3264E+01  0.6408E+01
      2.637  0.4693E+01  0.6651E+01
      2.689  0.5892E+01  0.6957E+01
      2.741  0.6425E+01  0.7290E+01
      2.793  0.6236E+01  0.7614E+01
      2.845  0.5733E+01  0.7911E+01
      2.896  0.5406E+01  0.8191E+01
      2.948  0.5371E+01  0.8470E+01
      3.000  0.5385E+01  0.8749E+01
      3.052  0.5256E+01  0.9022E+01
      3.104  0.4960E+01  0.9279E+01
      3.156  0.4402E+01  0.9508E+01
      3.208  0.3511E+01  0.9690E+01
      3.260  0.2466E+01  0.9818E+01
      3.311  0.1548E+01  0.9898E+01
      3.363  0.8944E+00  0.9945E+01
      3.415  0.4922E+00  0.9971E+01
      3.467  0.2646E+00  0.9985E+01
      3.519  0.1400E+00  0.9992E+01
      3.571  0.7343E-01  0.9996E+01
      3.623  0.3429E-01  0.9998E+01
      3.675  0.1787E-01  0.9999E+01
      3.727  0.1128E-01  0.1000E+02
      3.778  0.3832E-02  0.1000E+02
      3.830  0.5368E-02  0.1000E+02
      3.882  0.1246E-01  0.1000E+02
      3.934  0.2180E-01  0.1000E+02
      3.986  0.4181E-01  0.1000E+02
      4.038  0.7997E-01  0.1001E+02
      4.090  0.1546E+00  0.1002E+02
      4.142  0.2889E+00  0.1003E+02
      4.193  0.5362E+00  0.1006E+02
      4.245  0.9573E+00  0.1011E+02
      4.297  0.1622E+01  0.1019E+02
      4.349  0.2508E+01  0.1032E+02
      4.401  0.3443E+01  0.1050E+02
      4.453  0.4123E+01  0.1072E+02
      4.505  0.4341E+01  0.1094E+02
      4.557  0.4159E+01  0.1116E+02
      4.608  0.3805E+01  0.1135E+02
      4.660  0.3559E+01  0.1154E+02
      4.712  0.3609E+01  0.1173E+02
      4.764  0.3944E+01  0.1193E+02
      4.816  0.4439E+01  0.1216E+02
      4.868  0.4990E+01  0.1242E+02
      4.920  0.5447E+01  0.1270E+02
      4.972  0.5585E+01  0.1299E+02
      5.023  0.5245E+01  0.1326E+02
      5.075  0.4488E+01  0.1350E+02
      5.127  0.3506E+01  0.1368E+02
      5.179  0.2489E+01  0.1381E+02
      5.231  0.1605E+01  0.1389E+02
      5.283  0.9614E+00  0.1394E+02
      5.335  0.5557E+00  0.1397E+02
      5.387  0.3295E+00  0.1399E+02
      5.438  0.2340E+00  0.1400E+02
      5.490  0.2355E+00  0.1401E+02
      5.542  0.3252E+00  0.1403E+02
      5.594  0.5194E+00  0.1406E+02
      5.646  0.8336E+00  0.1410E+02
      5.698  0.1224E+01  0.1416E+02
      5.750  0.1539E+01  0.1424E+02
      5.802  0.1614E+01  0.1433E+02
      5.854  0.1432E+01  0.1440E+02
      5.905  0.1176E+01  0.1446E+02
      5.957  0.1055E+01  0.1452E+02
      6.009  0.1194E+01  0.1458E+02
      6.061  0.1633E+01  0.1466E+02
      6.113  0.2318E+01  0.1478E+02
      6.165  0.3044E+01  0.1494E+02
      6.217  0.3518E+01  0.1512E+02
      6.269  0.3583E+01  0.1531E+02
      6.320  0.3335E+01  0.1548E+02
      6.372  0.2935E+01  0.1564E+02
      6.424  0.2417E+01  0.1576E+02
      6.476  0.1800E+01  0.1586E+02
      6.528  0.1198E+01  0.1592E+02
      6.580  0.7326E+00  0.1596E+02
      6.632  0.4285E+00  0.1598E+02
      6.684  0.2579E+00  0.1599E+02
      6.735  0.1854E+00  0.1600E+02
      6.787  0.1888E+00  0.1601E+02
      6.839  0.2708E+00  0.1602E+02
      6.891  0.4533E+00  0.1605E+02
      6.943  0.7798E+00  0.1609E+02
      6.995  0.1282E+01  0.1616E+02
      7.047  0.1929E+01  0.1626E+02
      7.099  0.2608E+01  0.1639E+02
      7.150  0.3187E+01  0.1656E+02
      7.202  0.3647E+01  0.1675E+02
      7.254  0.3971E+01  0.1695E+02
      7.306  0.4110E+01  0.1716E+02
      7.358  0.4095E+01  0.1738E+02
      7.410  0.4098E+01  0.1759E+02
      7.462  0.4260E+01  0.1781E+02
      7.514  0.4520E+01  0.1804E+02