    4    4    5    1
  0.2228503E+02  0.7091058E-09  0.3545529E-09  0.3545529E-09  0.2000000E-14
   920.00000000000000     
  CAR 
 Al, 4 atoms                             
     12      4     12

  0.2500000E+00  0.2500000E+00  0.2500000E+00  0.2500000E+00
      1         -3.004946   1.000000
      2         -0.878923   1.000000
      3          1.709521   1.000000
      4          2.694990   1.000000
      5          2.919332   1.000000
      6          4.730144   0.920552
      7          5.137171   0.063898
      8          6.032856   0.000001
      9          7.338963   0.000000
     10          8.050071   0.000000
     11          8.470944   0.000000
     12         10.901076   0.000000

  0.2500000E+00 -0.2500000E+00  0.2500000E+00  0.2500000E+00
      1         -3.004272   1.000000
      2         -0.883613   1.000000
      3          1.731383   1.000000
      4          2.697667   1.000000
      5          2.900174   1.000000
      6          4.727373   0.923071
      7          5.099308   0.099140
      8          6.063642   0.000001
      9          7.373324   0.000000
     10          8.058971   0.000000
     11          8.451396   0.000000
     12         10.466635   0.000000

  0.2500000E+00 -0.2500000E+00 -0.2500000E+00  0.2500000E+00
      1         -3.004378   1.000000
      2         -0.882831   1.000000
      3          1.727652   1.000000
      4          2.696259   1.000000
      5          2.904503   1.000000
      6          4.733936   0.916983
      7          5.099017   0.099468
      8          6.056724   0.000001
      9          7.368670   0.000000
     10          8.057703   0.000000
     11          8.455358   0.000000
     12         11.341875   0.000000

  0.2500000E+00  0.2500000E+00 -0.2500000E+00  0.2500000E+00
      1         -3.005073   1.000000
      2         -0.878140   1.000000
      3          1.706059   1.000000
      4          2.694190   1.000000
      5          2.922562   1.000000
      6          4.737349   0.913646
      7          5.138047   0.063240
      8          6.022988   0.000001
      9          7.335707   0.000000
     10          8.050538   0.000000
     11          8.473099   0.000000
     12         11.105846   0.000000
