       N       E                     dE             d eps       ncg     rms          rms(c)
RMM:   1     0.222756610440E+02    0.22276E+02   -0.15172E+03    48   0.317E+02
RMM:   2    -0.543924124933E+01   -0.27715E+02   -0.25233E+02    48   0.698E+01
RMM:   3    -0.110138193153E+02   -0.55746E+01   -0.44489E+01    48   0.257E+01
RMM:   4    -0.122448950911E+02   -0.12311E+01   -0.83129E+00    48   0.141E+01
RMM:   5    -0.125651086493E+02   -0.32021E+00   -0.18827E+00    48   0.666E+00
RMM:   6    -0.126372900937E+02   -0.72181E-01   -0.48384E-01    48   0.360E+00
RMM:   7    -0.126524161929E+02   -0.15126E-01   -0.12454E-01    48   0.186E+00
RMM:   8    -0.126560639029E+02   -0.36477E-02   -0.32323E-02    48   0.993E-01
RMM:   9    -0.126569637971E+02   -0.89989E-03   -0.84600E-03   100   0.523E-01
RMM:  10    -0.126572618924E+02   -0.29810E-03   -0.29144E-03    94   0.277E-01
RMM:  11    -0.126573035646E+02   -0.41672E-04   -0.39459E-04    77   0.105E-01
RMM:  12    -0.126573175631E+02   -0.13999E-04   -0.13786E-04    74   0.582E-02    0.451E+00
RMM:  13    -0.113891744170E+02    0.12681E+01   -0.15932E+00   152   0.358E+00    0.210E+00
RMM:  14    -0.112954097536E+02    0.93765E-01   -0.16141E-01   132   0.126E+00    0.966E-01
RMM:  15    -0.112866951398E+02    0.87146E-02   -0.92033E-03    96   0.425E-01    0.474E-01
RMM:  16    -0.112853167939E+02    0.13783E-02   -0.46575E-03    96   0.337E-01    0.919E-02
RMM:  17    -0.112852682921E+02    0.48502E-04   -0.63915E-04    96   0.151E-01
      1 T=  6321. E= -.90789081E+01 F= -.11285268E+02 E0= -.11235131E+02  EK= 0.24511E+01 SP= -.46E+00 SK= 0.22E+00
       N       E                     dE             d eps       ncg     rms          rms(c)
RMM:   1    -0.112956193690E+02   -0.10303E-01   -0.68045E-01    96   0.510E+00    0.374E-01
RMM:   2    -0.112930865818E+02    0.25328E-02   -0.35087E-02    96   0.135E+00    0.139E-01
RMM:   3    -0.112930444773E+02    0.42104E-04   -0.63602E-03    96   0.597E-01    0.713E-02
RMM:   4    -0.112931335194E+02   -0.89042E-04   -0.94193E-04    96   0.252E-01
      2 T=  6555. E= -.90793179E+01 F= -.11293134E+02 E0= -.11243794E+02  EK= 0.25418E+01 SP= -.48E+00 SK= 0.15E+00
       N       E                     dE             d eps       ncg     rms          rms(c)
RMM:   1    -0.112855350677E+02    0.75094E-02   -0.25692E-02    96   0.108E+00    0.180E-01
RMM:   2    -0.112855611399E+02   -0.26072E-04   -0.16612E-03    96   0.296E-01    0.111E-01
RMM:   3    -0.112855986666E+02   -0.37527E-04   -0.31096E-04    94   0.132E-01
      3 T=  6712. E= -.90794440E+01 F= -.11285599E+02 E0= -.11237762E+02  EK= 0.26028E+01 SP= -.48E+00 SK= 0.88E-01
       N       E                     dE             d eps       ncg     rms          rms(c)
RMM:   1    -0.112679466183E+02    0.17615E-01   -0.53910E-03    96   0.509E-01    0.559E-02
RMM:   2    -0.112679614714E+02   -0.14853E-04   -0.88409E-04    96   0.219E-01
      4 T=  6802. E= -.90788090E+01 F= -.11267961E+02 E0= -.11222697E+02  EK= 0.26376E+01 SP= -.49E+00 SK= 0.43E-01
       N       E                     dE             d eps       ncg     rms          rms(c)
RMM:   1    -0.112458594020E+02    0.22087E-01   -0.50177E-03    96   0.463E-01    0.226E-01
RMM:   2    -0.112459250567E+02   -0.65655E-04   -0.58719E-04    96   0.180E-01
      5 T=  6834. E= -.90779727E+01 F= -.11245925E+02 E0= -.11204331E+02  EK= 0.26502E+01 SP= -.50E+00 SK= 0.14E-01
       N       E                     dE             d eps       ncg     rms          rms(c)
RMM:   1    -0.112242548489E+02    0.21605E-01   -0.51713E-03    96   0.447E-01    0.106E-01
RMM:   2    -0.112242971324E+02   -0.42283E-04   -0.61690E-04    95   0.167E-01
      6 T=  6819. E= -.90773030E+01 F= -.11224297E+02 E0= -.11186957E+02  EK= 0.26444E+01 SP= -.50E+00 SK= 0.80E-03
       N       E                     dE             d eps       ncg     rms          rms(c)
RMM:   1    -0.112072768316E+02    0.16978E-01   -0.80698E-03    96   0.480E-01    0.154E-01
RMM:   2    -0.112072416823E+02    0.35149E-04   -0.10734E-03    96   0.198E-01    0.204E-01
RMM:   3    -0.112072646420E+02   -0.22960E-04   -0.21815E-04    72   0.988E-02
      7 T=  6767. E= -.90770818E+01 F= -.11207265E+02 E0= -.11174094E+02  EK= 0.26243E+01 SP= -.50E+00 SK= 0.37E-02
       N       E                     dE             d eps       ncg     rms          rms(c)
RMM:   1    -0.111980998188E+02    0.91419E-02   -0.55156E-03    96   0.404E-01    0.159E-01
RMM:   2    -0.111981071331E+02   -0.73143E-05   -0.58736E-04    93   0.139E-01
      8 T=  6689. E= -.90768325E+01 F= -.11198107E+02 E0= -.11168202E+02  EK= 0.25938E+01 SP= -.49E+00 SK= 0.22E-01
       N       E                     dE             d eps       ncg     rms          rms(c)
RMM:   1    -0.112001394271E+02   -0.20396E-02   -0.81336E-03    96   0.472E-01    0.580E-02
RMM:   2    -0.112002018178E+02   -0.62391E-04   -0.71021E-04    92   0.164E-01
      9 T=  6595. E= -.90765262E+01 F= -.11200202E+02 E0= -.11172045E+02  EK= 0.25573E+01 SP= -.49E+00 SK= 0.56E-01
       N       E                     dE             d eps       ncg     rms          rms(c)
RMM:   1    -0.112149656564E+02   -0.14826E-01   -0.52157E-03    96   0.400E-01    0.439E-01
RMM:   2    -0.112150134621E+02   -0.47806E-04   -0.51686E-04    90   0.144E-01
     10 T=  6490. E= -.90764847E+01 F= -.11215013E+02 E0= -.11186640E+02  EK= 0.25166E+01 SP= -.48E+00 SK= 0.10E+00
       N       E                     dE             d eps       ncg     rms          rms(c)
RMM:   1    -0.112381669856E+02   -0.23201E-01   -0.53358E-03    96   0.390E-01    0.203E-01
RMM:   2    -0.112382192774E+02   -0.52292E-04   -0.54213E-04    88   0.144E-01
     11 T=  6365. E= -.90770561E+01 F= -.11238219E+02 E0= -.11207829E+02  EK= 0.24682E+01 SP= -.47E+00 SK= 0.16E+00
       N       E                     dE             d eps       ncg     rms          rms(c)
RMM:   1    -0.112568502234E+02   -0.18683E-01   -0.53354E-03    96   0.370E-01    0.178E-01
RMM:   2    -0.112568988877E+02   -0.48664E-04   -0.56364E-04    86   0.139E-01
     12 T=  6190. E= -.90783677E+01 F= -.11256899E+02 E0= -.11223034E+02  EK= 0.24004E+01 SP= -.46E+00 SK= 0.24E+00
       N       E                     dE             d eps       ncg     rms          rms(c)
RMM:   1    -0.112501146664E+02    0.67356E-02   -0.60012E-03    96   0.356E-01    0.451E-02
RMM:   2    -0.112501765074E+02   -0.61841E-04   -0.63346E-04    86   0.140E-01
     13 T=  5919. E= -.90800059E+01 F= -.11250177E+02 E0= -.11212152E+02  EK= 0.22952E+01 SP= -.44E+00 SK= 0.32E+00
       N       E                     dE             d eps       ncg     rms          rms(c)
RMM:   1    -0.111951497364E+02    0.54965E-01   -0.66528E-03    96   0.350E-01    0.105E-01
RMM:   2    -0.111952113587E+02   -0.61622E-04   -0.71429E-04    84   0.146E-01
     14 T=  5504. E= -.90813872E+01 F= -.11195211E+02 E0= -.11153240E+02  EK= 0.21344E+01 SP= -.43E+00 SK= 0.41E+00
       N       E                     dE             d eps       ncg     rms          rms(c)
RMM:   1    -0.110769889855E+02    0.11816E+00   -0.32428E-03    96   0.296E-01    0.616E-02
RMM:   2    -0.110770233267E+02   -0.34341E-04   -0.38448E-04    83   0.119E-01
     15 T=  4925. E= -.90817547E+01 F= -.11077023E+02 E0= -.11031809E+02  EK= 0.19096E+01 SP= -.41E+00 SK= 0.49E+00
       N       E                     dE             d eps       ncg     rms          rms(c)
RMM:   1    -0.108982755953E+02    0.17871E+00   -0.37614E-03    96   0.309E-01    0.423E-02
RMM:   2    -0.108983117365E+02   -0.36141E-04   -0.42207E-04    83   0.122E-01
     16 T=  4206. E= -.90803666E+01 F= -.10898312E+02 E0= -.10850655E+02  EK= 0.16310E+01 SP= -.39E+00 SK= 0.58E+00
       N       E                     dE             d eps       ncg     rms          rms(c)
RMM:   1    -0.106858651293E+02    0.21241E+00   -0.35086E-03    96   0.357E-01    0.111E-01
RMM:   2    -0.106858887003E+02   -0.23571E-04   -0.35579E-04    86   0.128E-01
     17 T=  3433. E= -.90773169E+01 F= -.10685889E+02 E0= -.10636468E+02  EK= 0.13312E+01 SP= -.37E+00 SK= 0.64E+00
       N       E                     dE             d eps       ncg     rms          rms(c)
RMM:   1    -0.104882258756E+02    0.19764E+00   -0.43984E-03    96   0.381E-01    0.484E-02
RMM:   2    -0.104882686211E+02   -0.42746E-04   -0.46231E-04    89   0.145E-01
     18 T=  2735. E= -.90735730E+01 F= -.10488269E+02 E0= -.10437745E+02  EK= 0.10607E+01 SP= -.34E+00 SK= 0.70E+00
       N       E                     dE             d eps       ncg     rms          rms(c)
RMM:   1    -0.103614760865E+02    0.12675E+00   -0.30237E-03    96   0.327E-01    0.284E-02
RMM:   2    -0.103614961477E+02   -0.20061E-04   -0.35025E-04    85   0.127E-01
     19 T=  2251. E= -.90706396E+01 F= -.10361496E+02 E0= -.10310486E+02  EK= 0.87283E+00 SP= -.32E+00 SK= 0.74E+00
       N       E                     dE             d eps       ncg     rms          rms(c)
RMM:   1    -0.103472464550E+02    0.14230E-01   -0.26601E-03    96   0.262E-01    0.391E-02
RMM:   2    -0.103472694075E+02   -0.22953E-04   -0.29700E-04    80   0.105E-01
     20 T=  2070. E= -.90697295E+01 F= -.10347269E+02 E0= -.10296292E+02  EK= 0.80253E+00 SP= -.30E+00 SK= 0.77E+00
       N       E                     dE             d eps       ncg     rms          rms(c)
RMM:   1    -0.104547651340E+02   -0.10752E+00   -0.24529E-03    96   0.223E-01    0.658E-02
RMM:   2    -0.104547902014E+02   -0.25067E-04   -0.28248E-04    79   0.935E-02
     21 T=  2195. E= -.90711306E+01 F= -.10454790E+02 E0= -.10404230E+02  EK= 0.85109E+00 SP= -.27E+00 SK= 0.80E+00
       N       E                     dE             d eps       ncg     rms          rms(c)
RMM:   1    -0.106579071394E+02   -0.20314E+00   -0.27096E-03    96   0.216E-01    0.249E-02
RMM:   2    -0.106579359123E+02   -0.28773E-04   -0.28501E-04    77   0.916E-02
     22 T=  2542. E= -.90740592E+01 F= -.10657936E+02 E0= -.10608185E+02  EK= 0.98582E+00 SP= -.25E+00 SK= 0.84E+00
       N       E                     dE             d eps       ncg     rms          rms(c)
RMM:   1    -0.109089404575E+02   -0.25103E+00   -0.27884E-03    96   0.236E-01    0.331E-02
RMM:   2    -0.109089735508E+02   -0.33093E-04   -0.30352E-04    80   0.988E-02
     23 T=  2979. E= -.90771669E+01 F= -.10908974E+02 E0= -.10860485E+02  EK= 0.11553E+01 SP= -.22E+00 SK= 0.90E+00
       N       E                     dE             d eps       ncg     rms          rms(c)
RMM:   1    -0.111589077526E+02   -0.24997E+00   -0.22385E-03    96   0.246E-01    0.339E-02
RMM:   2    -0.111589298923E+02   -0.22140E-04   -0.27008E-04    80   0.980E-02
     24 T=  3377. E= -.90794444E+01 F= -.11158930E+02 E0= -.11112325E+02  EK= 0.13096E+01 SP= -.19E+00 SK= 0.96E+00
       N       E                     dE             d eps       ncg     rms          rms(c)
RMM:   1    -0.113725394402E+02   -0.21363E+00   -0.21039E-03    96   0.252E-01    0.500E-02
RMM:   2    -0.113725598283E+02   -0.20388E-04   -0.23763E-04    77   0.968E-02
     25 T=  3649. E= -.90805877E+01 F= -.11372560E+02 E0= -.11328651E+02  EK= 0.14149E+01 SP= -.16E+00 SK= 0.10E+01
       N       E                     dE             d eps       ncg     rms          rms(c)
RMM:   1    -0.115326270782E+02   -0.16009E+00   -0.27323E-03    96   0.255E-01    0.441E-02
RMM:   2    -0.115326553666E+02   -0.28288E-04   -0.27964E-04    79   0.997E-02
     26 T=  3758. E= -.90807684E+01 F= -.11532655E+02 E0= -.11492234E+02  EK= 0.14574E+01 SP= -.14E+00 SK= 0.11E+01
       N       E                     dE             d eps       ncg     rms          rms(c)
RMM:   1    -0.116369492089E+02   -0.10432E+00   -0.32207E-03    96   0.240E-01    0.364E-02
RMM:   2    -0.116369791732E+02   -0.29964E-04   -0.32242E-04    82   0.992E-02
     27 T=  3711. E= -.90803144E+01 F= -.11636979E+02 E0= -.11600688E+02  EK= 0.14389E+01 SP= -.11E+00 SK= 0.12E+01
       N       E                     dE             d eps       ncg     rms          rms(c)
RMM:   1    -0.116928477204E+02   -0.55899E-01   -0.39032E-03    96   0.219E-01    0.292E-02
RMM:   2    -0.116928824800E+02   -0.34760E-04   -0.39222E-04    78   0.973E-02
     28 T=  3537. E= -.90795577E+01 F= -.11692882E+02 E0= -.11660995E+02  EK= 0.13714E+01 SP= -.74E-01 SK= 0.13E+01
       N       E                     dE             d eps       ncg     rms          rms(c)
RMM:   1    -0.117119218588E+02   -0.19074E-01   -0.18295E-03    96   0.184E-01    0.261E-02
RMM:   2    -0.117119386319E+02   -0.16773E-04   -0.20363E-04    77   0.776E-02
     29 T=  3276. E= -.90787544E+01 F= -.11711939E+02 E0= -.11684275E+02  EK= 0.12705E+01 SP= -.41E-01 SK= 0.14E+01
       N       E                     dE             d eps       ncg     rms          rms(c)
RMM:   1    -0.117061922900E+02    0.57296E-02   -0.34433E-03    96   0.207E-01    0.417E-02
RMM:   2    -0.117062214049E+02   -0.29115E-04   -0.33926E-04    79   0.925E-02
     30 T=  2969. E= -.90780104E+01 F= -.11706221E+02 E0= -.11682293E+02  EK= 0.11515E+01 SP= -.75E-02 SK= 0.15E+01
       N       E                     dE             d eps       ncg     rms          rms(c)
RMM:   1    -0.116866883461E+02    0.19504E-01   -0.21271E-03    96   0.199E-01    0.130E-02
RMM:   2    -0.116867100774E+02   -0.21731E-04   -0.23816E-04    79   0.862E-02
     31 T=  2649. E= -.90774059E+01 F= -.11686710E+02 E0= -.11665834E+02  EK= 0.10274E+01 SP= 0.27E-01 SK= 0.16E+01
       N       E                     dE             d eps       ncg     rms          rms(c)
RMM:   1    -0.116623050121E+02    0.24383E-01   -0.16971E-03    96   0.171E-01    0.306E-02
RMM:   2    -0.116623209364E+02   -0.15924E-04   -0.17462E-04    77   0.723E-02
     32 T=  2342. E= -.90769637E+01 F= -.11662321E+02 E0= -.11643795E+02  EK= 0.90802E+00 SP= 0.62E-01 SK= 0.16E+01
       N       E                     dE             d eps       ncg     rms          rms(c)
RMM:   1    -0.116394644551E+02    0.22841E-01   -0.21566E-03    96   0.177E-01    0.421E-02
RMM:   2    -0.116394867623E+02   -0.22307E-04   -0.23728E-04    79   0.822E-02
     33 T=  2063. E= -.90766661E+01 F= -.11639487E+02 E0= -.11622676E+02  EK= 0.79982E+00 SP= 0.98E-01 SK= 0.17E+01
       N       E                     dE             d eps       ncg     rms          rms(c)
RMM:   1    -0.116223468218E+02    0.17118E-01   -0.12270E-03    96   0.144E-01    0.314E-02
RMM:   2    -0.116223550490E+02   -0.82272E-05   -0.14454E-04    74   0.651E-02
     34 T=  1821. E= -.90764971E+01 F= -.11622355E+02 E0= -.11606740E+02  EK= 0.70628E+00 SP= 0.13E+00 SK= 0.17E+01
       N       E                     dE             d eps       ncg     rms          rms(c)
RMM:   1    -0.116131874595E+02    0.91594E-02   -0.15719E-03    95   0.147E-01    0.131E-02
RMM:   2    -0.116132036126E+02   -0.16153E-04   -0.17143E-04    77   0.706E-02
     35 T=  1621. E= -.90764038E+01 F= -.11613204E+02 E0= -.11598339E+02  EK= 0.62861E+00 SP= 0.17E+00 SK= 0.17E+01
       N       E                     dE             d eps       ncg     rms          rms(c)
RMM:   1    -0.116129420573E+02    0.24540E-03   -0.12029E-03    91   0.129E-01    0.189E-02
RMM:   2    -0.116129549003E+02   -0.12843E-04   -0.13116E-04    74   0.604E-02
     36 T=  1461. E= -.90763681E+01 F= -.11612955E+02 E0= -.11598485E+02  EK= 0.56644E+00 SP= 0.21E+00 SK= 0.18E+01
       N       E                     dE             d eps       ncg     rms          rms(c)
RMM:   1    -0.116216517405E+02   -0.87097E-02   -0.81891E-04    87   0.110E-01    0.112E-02
RMM:   2    -0.116216593281E+02   -0.75876E-05   -0.83939E-05    70   0.492E-02
     37 T=  1337. E= -.90763593E+01 F= -.11621659E+02 E0= -.11607268E+02  EK= 0.51853E+00 SP= 0.25E+00 SK= 0.18E+01
       N       E                     dE             d eps       ncg     rms          rms(c)
RMM:   1    -0.116389679883E+02   -0.17316E-01   -0.70451E-04    90   0.104E-01    0.109E-02
RMM:   2    -0.116389757434E+02   -0.77551E-05   -0.76586E-05    69   0.472E-02
     38 T=  1246. E= -.90763371E+01 F= -.11638976E+02 E0= -.11624396E+02  EK= 0.48330E+00 SP= 0.28E+00 SK= 0.18E+01
       N       E                     dE             d eps       ncg     rms          rms(c)
RMM:   1    -0.116644879104E+02   -0.25520E-01   -0.79000E-04    90   0.978E-02    0.881E-03
RMM:   2    -0.116644956662E+02   -0.77559E-05   -0.76740E-05    72   0.457E-02
     39 T=  1184. E= -.90762801E+01 F= -.11664496E+02 E0= -.11649503E+02  EK= 0.45921E+00 SP= 0.32E+00 SK= 0.18E+01
       N       E                     dE             d eps       ncg     rms          rms(c)
RMM:   1    -0.116978555973E+02   -0.33368E-01   -0.13133E-03    87   0.107E-01    0.135E-02
RMM:   2    -0.116978680121E+02   -0.12415E-04   -0.12561E-04    67   0.511E-02
     40 T=  1147. E= -.90761901E+01 F= -.11697868E+02 E0= -.11682249E+02  EK= 0.44486E+00 SP= 0.36E+00 SK= 0.18E+01
       N       E                     dE             d eps       ncg     rms          rms(c)
RMM:   1    -0.117387377211E+02   -0.40882E-01   -0.79880E-04    85   0.951E-02    0.109E-02
RMM:   2    -0.117387463341E+02   -0.86130E-05   -0.81528E-05    68   0.457E-02
     41 T=  1132. E= -.90760874E+01 F= -.11738746E+02 E0= -.11722316E+02  EK= 0.43895E+00 SP= 0.40E+00 SK= 0.18E+01
       N       E                     dE             d eps       ncg     rms          rms(c)
RMM:   1    -0.117866123267E+02   -0.47875E-01   -0.11300E-03    90   0.104E-01    0.831E-03
RMM:   2    -0.117866230125E+02   -0.10686E-04   -0.11384E-04    69   0.523E-02
     42 T=  1135. E= -.90759887E+01 F= -.11786623E+02 E0= -.11769213E+02  EK= 0.44015E+00 SP= 0.43E+00 SK= 0.18E+01
       N       E                     dE             d eps       ncg     rms          rms(c)
RMM:   1    -0.118406703955E+02   -0.54058E-01   -0.10167E-03    87   0.104E-01    0.932E-03
RMM:   2    -0.118406807403E+02   -0.10345E-04   -0.10553E-04    68   0.521E-02
     43 T=  1153. E= -.90759230E+01 F= -.11840681E+02 E0= -.11822132E+02  EK= 0.44694E+00 SP= 0.47E+00 SK= 0.18E+01
       N       E                     dE             d eps       ncg     rms          rms(c)
RMM:   1    -0.118996674384E+02   -0.58997E-01   -0.97346E-04    85   0.927E-02    0.959E-03
RMM:   2    -0.118996778774E+02   -0.10439E-04   -0.10368E-04    67   0.471E-02
     44 T=  1180. E= -.90758908E+01 F= -.11899678E+02 E0= -.11879858E+02  EK= 0.45757E+00 SP= 0.51E+00 SK= 0.19E+01
       N       E                     dE             d eps       ncg     rms          rms(c)
RMM:   1    -0.119619255907E+02   -0.62258E-01   -0.85899E-04    85   0.938E-02    0.489E-03
RMM:   2    -0.119619361260E+02   -0.10535E-04   -0.99935E-05    66   0.475E-02
     45 T=  1212. E= -.90758829E+01 F= -.11961936E+02 E0= -.11940736E+02  EK= 0.47004E+00 SP= 0.55E+00 SK= 0.19E+01
       N       E                     dE             d eps       ncg     rms          rms(c)
RMM:   1    -0.120254064305E+02   -0.63481E-01   -0.83797E-04    88   0.941E-02    0.801E-03
RMM:   2    -0.120254154730E+02   -0.90425E-05   -0.88101E-05    67   0.478E-02
     46 T=  1244. E= -.90758905E+01 F= -.12025415E+02 E0= -.12002734E+02  EK= 0.48223E+00 SP= 0.59E+00 SK= 0.19E+01
       N       E                     dE             d eps       ncg     rms          rms(c)
RMM:   1    -0.120878723370E+02   -0.62466E-01   -0.12649E-03    88   0.104E-01    0.144E-02
RMM:   2    -0.120878848119E+02   -0.12475E-04   -0.11972E-04    69   0.535E-02
     47 T=  1269. E= -.90759036E+01 F= -.12087885E+02 E0= -.12063647E+02  EK= 0.49203E+00 SP= 0.62E+00 SK= 0.19E+01
       N       E                     dE             d eps       ncg     rms          rms(c)
RMM:   1    -0.121471294606E+02   -0.59257E-01   -0.19817E-03    87   0.118E-01    0.743E-03
RMM:   2    -0.121471475973E+02   -0.18137E-04   -0.18420E-04    69   0.618E-02
     48 T=  1283. E= -.90759216E+01 F= -.12147148E+02 E0= -.12121304E+02  EK= 0.49759E+00 SP= 0.66E+00 SK= 0.19E+01
       N       E                     dE             d eps       ncg     rms          rms(c)
RMM:   1    -0.122012389563E+02   -0.54109E-01   -0.22981E-03    90   0.129E-01    0.688E-03
RMM:   2    -0.122012616464E+02   -0.22690E-04   -0.21712E-04    70   0.670E-02
     49 T=  1283. E= -.90759289E+01 F= -.12201262E+02 E0= -.12173779E+02  EK= 0.49751E+00 SP= 0.70E+00 SK= 0.19E+01
       N       E                     dE             d eps       ncg     rms          rms(c)
RMM:   1    -0.122487176771E+02   -0.47479E-01   -0.19485E-03    91   0.131E-01    0.577E-03
RMM:   2    -0.122487372538E+02   -0.19577E-04   -0.18765E-04    68   0.672E-02
     50 T=  1266. E= -.90759118E+01 F= -.12248737E+02 E0= -.12219620E+02  EK= 0.49098E+00 SP= 0.74E+00 SK= 0.19E+01
       N       E                     dE             d eps       ncg     rms          rms(c)
RMM:   1    -0.122886382609E+02   -0.39921E-01   -0.18843E-03    91   0.128E-01    0.675E-03
RMM:   2    -0.122886561805E+02   -0.17920E-04   -0.17387E-04    71   0.655E-02
     51 T=  1232. E= -.90758594E+01 F= -.12288656E+02 E0= -.12257929E+02  EK= 0.47782E+00 SP= 0.78E+00 SK= 0.20E+01
       N       E                     dE             d eps       ncg     rms          rms(c)
RMM:   1    -0.123206941371E+02   -0.32056E-01   -0.10605E-03    85   0.105E-01    0.812E-03
RMM:   2    -0.123207052425E+02   -0.11105E-04   -0.10749E-04    66   0.517E-02
     52 T=  1182. E= -.90757724E+01 F= -.12320705E+02 E0= -.12288407E+02  EK= 0.45845E+00 SP= 0.82E+00 SK= 0.20E+01
       N       E                     dE             d eps       ncg     rms          rms(c)
RMM:   1    -0.123450954516E+02   -0.24401E-01   -0.15355E-03    89   0.120E-01    0.747E-03
RMM:   2    -0.123451112109E+02   -0.15759E-04   -0.15561E-04    71   0.643E-02
     53 T=  1119. E= -.90756624E+01 F= -.12345111E+02 E0= -.12311322E+02  EK= 0.43376E+00 SP= 0.86E+00 SK= 0.20E+01
       N       E                     dE             d eps       ncg     rms          rms(c)
RMM:   1    -0.123625525419E+02   -0.17457E-01   -0.64755E-04    86   0.950E-02    0.752E-03
RMM:   2    -0.123625597544E+02   -0.72126E-05   -0.72060E-05    66   0.460E-02
     54 T=  1044. E= -.90755586E+01 F= -.12362560E+02 E0= -.12327365E+02  EK= 0.40496E+00 SP= 0.90E+00 SK= 0.20E+01
       N       E                     dE             d eps       ncg     rms          rms(c)
RMM:   1    -0.123740690149E+02   -0.11516E-01   -0.56072E-04    82   0.812E-02    0.629E-03
RMM:   2    -0.123740748561E+02   -0.58413E-05   -0.59279E-05    66   0.397E-02
     55 T=   963. E= -.90754611E+01 F= -.12374075E+02 E0= -.12337557E+02  EK= 0.37351E+00 SP= 0.94E+00 SK= 0.20E+01
       N       E                     dE             d eps       ncg     rms          rms(c)
RMM:   1    -0.123808928417E+02   -0.68238E-02   -0.66598E-04    81   0.827E-02    0.864E-03
RMM:   2    -0.123808994825E+02   -0.66408E-05   -0.68541E-05    65   0.397E-02
     56 T=   879. E= -.90753555E+01 F= -.12380899E+02 E0= -.12343140E+02  EK= 0.34091E+00 SP= 0.98E+00 SK= 0.20E+01
       N       E                     dE             d eps       ncg     rms          rms(c)
RMM:   1    -0.123843204889E+02   -0.34276E-02   -0.46813E-04    83   0.761E-02    0.650E-03
RMM:   2    -0.123843256590E+02   -0.51701E-05   -0.51486E-05    64   0.383E-02
     57 T=   796. E= -.90752436E+01 F= -.12384326E+02 E0= -.12345430E+02  EK= 0.30853E+00 SP= 0.10E+01 SK= 0.20E+01
       N       E                     dE             d eps       ncg     rms          rms(c)
RMM:   1    -0.123855542130E+02   -0.12337E-02   -0.46997E-04    78   0.728E-02    0.427E-03
RMM:   2    -0.123855587724E+02   -0.45594E-05   -0.48787E-05    62   0.365E-02
     58 T=   716. E= -.90751380E+01 F= -.12385559E+02 E0= -.12345642E+02  EK= 0.27750E+00 SP= 0.11E+01 SK= 0.20E+01
       N       E                     dE             d eps       ncg     rms          rms(c)
RMM:   1    -0.123856215339E+02   -0.67321E-04   -0.20455E-04    75   0.583E-02    0.447E-03
RMM:   2    -0.123856239885E+02   -0.24546E-05   -0.25020E-05    62   0.272E-02
     59 T=   641. E= -.90750470E+01 F= -.12385624E+02 E0= -.12344776E+02  EK= 0.24866E+00 SP= 0.11E+01 SK= 0.20E+01
       N       E                     dE             d eps       ncg     rms          rms(c)
RMM:   1    -0.123853173282E+02    0.30421E-03   -0.21036E-04    73   0.520E-02    0.101E-02
RMM:   2    -0.123853191681E+02   -0.18398E-05   -0.22379E-05    54   0.251E-02
     60 T=   574. E= -.90749714E+01 F= -.12385319E+02 E0= -.12343638E+02  EK= 0.22254E+00 SP= 0.11E+01 SK= 0.20E+01
       N       E                     dE             d eps       ncg     rms          rms(c)
RMM:   1    -0.123852082523E+02    0.10908E-03   -0.27287E-04    73   0.573E-02    0.777E-03
RMM:   2    -0.123852111063E+02   -0.28540E-05   -0.30745E-05    64   0.281E-02
     61 T=   514. E= -.90749100E+01 F= -.12385211E+02 E0= -.12342779E+02  EK= 0.19939E+00 SP= 0.12E+01 SK= 0.19E+01
       N       E                     dE             d eps       ncg     rms          rms(c)
RMM:   1    -0.123856472880E+02   -0.43904E-03   -0.23460E-04    76   0.498E-02    0.329E-03
RMM:   2    -0.123856496760E+02   -0.23879E-05   -0.24382E-05    58   0.248E-02
     62 T=   462. E= -.90748607E+01 F= -.12385650E+02 E0= -.12342565E+02  EK= 0.17923E+00 SP= 0.12E+01 SK= 0.19E+01
       N       E                     dE             d eps       ncg     rms          rms(c)
RMM:   1    -0.123867940889E+02   -0.11468E-02   -0.24328E-04    76   0.518E-02    0.494E-03
RMM:   2    -0.123867965886E+02   -0.24997E-05   -0.24856E-05    58   0.255E-02
     63 T=   418. E= -.90748192E+01 F= -.12386797E+02 E0= -.12343119E+02  EK= 0.16191E+00 SP= 0.12E+01 SK= 0.19E+01
       N       E                     dE             d eps       ncg     rms          rms(c)
RMM:   1    -0.123886602325E+02   -0.18661E-02   -0.27180E-04    75   0.518E-02    0.572E-03
RMM:   2    -0.123886631387E+02   -0.29062E-05   -0.28688E-05    56   0.262E-02
     64 T=   379. E= -.90747844E+01 F= -.12388663E+02 E0= -.12344441E+02  EK= 0.14713E+00 SP= 0.13E+01 SK= 0.19E+01
       N       E                     dE             d eps       ncg     rms          rms(c)
RMM:   1    -0.123911530510E+02   -0.24928E-02   -0.31681E-04    76   0.559E-02    0.440E-03
RMM:   2    -0.123911562135E+02   -0.31625E-05   -0.32072E-05    57   0.282E-02
     65 T=   347. E= -.90747563E+01 F= -.12391156E+02 E0= -.12346437E+02  EK= 0.13454E+00 SP= 0.13E+01 SK= 0.19E+01
       N       E                     dE             d eps       ncg     rms          rms(c)
RMM:   1    -0.123941193248E+02   -0.29663E-02   -0.37077E-04    76   0.575E-02    0.381E-03
RMM:   2    -0.123941229017E+02   -0.35769E-05   -0.36201E-05    59   0.291E-02
     66 T=   319. E= -.90747331E+01 F= -.12394123E+02 E0= -.12348947E+02  EK= 0.12375E+00 SP= 0.14E+01 SK= 0.18E+01
       N       E                     dE             d eps       ncg     rms          rms(c)
RMM:   1    -0.123973834054E+02   -0.32641E-02   -0.38448E-04    80   0.594E-02    0.672E-03
RMM:   2    -0.123973872072E+02   -0.38018E-05   -0.38406E-05    57   0.304E-02
     67 T=   295. E= -.90747109E+01 F= -.12397387E+02 E0= -.12351804E+02  EK= 0.11442E+00 SP= 0.14E+01 SK= 0.18E+01
       N       E                     dE             d eps       ncg     rms          rms(c)
RMM:   1    -0.124007799230E+02   -0.33965E-02   -0.39343E-04    79   0.599E-02    0.328E-03
RMM:   2    -0.124007839328E+02   -0.40098E-05   -0.38268E-05    58   0.309E-02
     68 T=   274. E= -.90746869E+01 F= -.12400784E+02 E0= -.12354838E+02  EK= 0.10623E+00 SP= 0.14E+01 SK= 0.18E+01
       N       E                     dE             d eps       ncg     rms          rms(c)
RMM:   1    -0.124041748225E+02   -0.33949E-02   -0.28431E-04    76   0.539E-02    0.332E-03
RMM:   2    -0.124041774937E+02   -0.26712E-05   -0.26893E-05    58   0.271E-02
     69 T=   255. E= -.90746629E+01 F= -.12404177E+02 E0= -.12357891E+02  EK= 0.98932E-01 SP= 0.15E+01 SK= 0.18E+01
       N       E                     dE             d eps       ncg     rms          rms(c)
RMM:   1    -0.124074640028E+02   -0.32892E-02   -0.28387E-04    75   0.542E-02    0.298E-03
RMM:   2    -0.124074669611E+02   -0.29583E-05   -0.28080E-05    59   0.273E-02
     70 T=   238. E= -.90746390E+01 F= -.12407467E+02 E0= -.12360885E+02  EK= 0.92331E-01 SP= 0.15E+01 SK= 0.17E+01
       N       E                     dE             d eps       ncg     rms          rms(c)
RMM:   1    -0.124105882250E+02   -0.31242E-02   -0.32969E-04    75   0.555E-02    0.207E-03
RMM:   2    -0.124105915201E+02   -0.32951E-05   -0.30714E-05    55   0.281E-02
     71 T=   223. E= -.90746172E+01 F= -.12410592E+02 E0= -.12363752E+02  EK= 0.86292E-01 SP= 0.15E+01 SK= 0.17E+01
       N       E                     dE             d eps       ncg     rms          rms(c)
RMM:   1    -0.124135238929E+02   -0.29357E-02   -0.27767E-04    73   0.513E-02    0.298E-03
RMM:   2    -0.124135265874E+02   -0.26944E-05   -0.26307E-05    55   0.260E-02
     72 T=   208. E= -.90745961E+01 F= -.12413527E+02 E0= -.12366458E+02  EK= 0.80730E-01 SP= 0.16E+01 SK= 0.17E+01
       N       E                     dE             d eps       ncg     rms          rms(c)
RMM:   1    -0.124162774924E+02   -0.27536E-02   -0.23633E-04    71   0.488E-02    0.282E-03
RMM:   2    -0.124162797892E+02   -0.22968E-05   -0.21254E-05    51   0.242E-02
     73 T=   195. E= -.90745735E+01 F= -.12416280E+02 E0= -.12369008E+02  EK= 0.75599E-01 SP= 0.16E+01 SK= 0.16E+01
       N       E                     dE             d eps       ncg     rms          rms(c)
RMM:   1    -0.124188795453E+02   -0.26021E-02   -0.32566E-04    77   0.547E-02    0.280E-03
RMM:   2    -0.124188826341E+02   -0.30887E-05   -0.30714E-05    54   0.273E-02
     74 T=   183. E= -.90745518E+01 F= -.12418883E+02 E0= -.12371444E+02  EK= 0.70880E-01 SP= 0.17E+01 SK= 0.16E+01
       N       E                     dE             d eps       ncg     rms          rms(c)
RMM:   1    -0.124213840355E+02   -0.25045E-02   -0.15997E-04    68   0.433E-02    0.415E-03
RMM:   2    -0.124213857044E+02   -0.16689E-05   -0.15477E-05    49   0.213E-02
     75 T=   172. E= -.90745342E+01 F= -.12421386E+02 E0= -.12373817E+02  EK= 0.66571E-01 SP= 0.17E+01 SK= 0.16E+01
       N       E                     dE             d eps       ncg     rms          rms(c)
RMM:   1    -0.124238482664E+02   -0.24642E-02   -0.18286E-04    70   0.434E-02    0.459E-03
RMM:   2    -0.124238499760E+02   -0.17096E-05   -0.17005E-05    48   0.217E-02
     76 T=   162. E= -.90745204E+01 F= -.12423850E+02 E0= -.12376193E+02  EK= 0.62685E-01 SP= 0.17E+01 SK= 0.16E+01
       N       E                     dE             d eps       ncg     rms          rms(c)
RMM:   1    -0.124263385950E+02   -0.24903E-02   -0.12715E-04    67   0.393E-02    0.459E-03
RMM:   2    -0.124263397739E+02   -0.11789E-05   -0.13067E-05    48   0.193E-02
     77 T=   153. E= -.90745067E+01 F= -.12426340E+02 E0= -.12378637E+02  EK= 0.59241E-01 SP= 0.18E+01 SK= 0.15E+01
       N       E                     dE             d eps       ncg     rms          rms(c)
RMM:   1    -0.124289167330E+02   -0.25781E-02   -0.12262E-04    64   0.376E-02    0.227E-03
RMM:   2    -0.124289179971E+02   -0.12642E-05   -0.11844E-05    48   0.181E-02
     78 T=   145. E= -.90744923E+01 F= -.12428918E+02 E0= -.12381199E+02  EK= 0.56253E-01 SP= 0.18E+01 SK= 0.15E+01
       N       E                     dE             d eps       ncg     rms          rms(c)
RMM:   1    -0.124316378988E+02   -0.27212E-02   -0.13627E-04    65   0.385E-02    0.326E-03
RMM:   2    -0.124316388623E+02   -0.96352E-06   -0.11226E-05    45   0.186E-02
     79 T=   139. E= -.90744798E+01 F= -.12431639E+02 E0= -.12383936E+02  EK= 0.53724E-01 SP= 0.18E+01 SK= 0.15E+01
       N       E                     dE             d eps       ncg     rms          rms(c)
RMM:   1    -0.124345414836E+02   -0.29036E-02   -0.11779E-04    66   0.382E-02    0.232E-03
RMM:   2    -0.124345426459E+02   -0.11623E-05   -0.10982E-05    49   0.184E-02
     80 T=   133. E= -.90744688E+01 F= -.12434543E+02 E0= -.12386894E+02  EK= 0.51647E-01 SP= 0.19E+01 SK= 0.14E+01
       N       E                     dE             d eps       ncg     rms          rms(c)
RMM:   1    -0.124376523391E+02   -0.31109E-02   -0.82854E-05    63   0.333E-02    0.359E-03
RMM:   2    -0.124376528624E+02   -0.52330E-06   -0.63218E-06    41   0.154E-02
     81 T=   129. E= -.90744594E+01 F= -.12437653E+02 E0= -.12390090E+02  EK= 0.49999E-01 SP= 0.19E+01 SK= 0.14E+01
       N       E                     dE             d eps       ncg     rms          rms(c)
RMM:   1    -0.124409744193E+02   -0.33221E-02   -0.10989E-04    65   0.380E-02    0.201E-03
RMM:   2    -0.124409754319E+02   -0.10126E-05   -0.96771E-06    46   0.181E-02
     82 T=   126. E= -.90744538E+01 F= -.12440975E+02 E0= -.12393540E+02  EK= 0.48743E-01 SP= 0.19E+01 SK= 0.14E+01
       N       E                     dE             d eps       ncg     rms          rms(c)
RMM:   1    -0.124444936804E+02   -0.35193E-02   -0.12016E-04    69   0.377E-02    0.317E-03
RMM:   2    -0.124444947837E+02   -0.11033E-05   -0.10005E-05    46   0.176E-02
     83 T=   123. E= -.90744520E+01 F= -.12444495E+02 E0= -.12397202E+02  EK= 0.47828E-01 SP= 0.20E+01 SK= 0.14E+01
       N       E                     dE             d eps       ncg     rms          rms(c)
RMM:   1    -0.124481775132E+02   -0.36838E-02   -0.65740E-05    59   0.322E-02    0.270E-03
RMM:   2    -0.124481781655E+02   -0.65223E-06   -0.62301E-06    43   0.150E-02
     84 T=   122. E= -.90744544E+01 F= -.12448178E+02 E0= -.12401054E+02  EK= 0.47189E-01 SP= 0.20E+01 SK= 0.13E+01
       N       E                     dE             d eps       ncg     rms          rms(c)
RMM:   1    -0.124519743120E+02   -0.37968E-02   -0.54923E-05    62   0.303E-02    0.120E-03
RMM:   2    -0.124519748616E+02   -0.54960E-06   -0.53192E-06    42   0.139E-02
     85 T=   121. E= -.90744585E+01 F= -.12451975E+02 E0= -.12405040E+02  EK= 0.46756E-01 SP= 0.20E+01 SK= 0.13E+01
       N       E                     dE             d eps       ncg     rms          rms(c)
RMM:   1    -0.124558192124E+02   -0.38449E-02   -0.98356E-05    65   0.351E-02    0.151E-03
RMM:   2    -0.124558201167E+02   -0.90435E-06   -0.84812E-06    42   0.165E-02
     86 T=   120. E= -.90744639E+01 F= -.12455820E+02 E0= -.12409090E+02  EK= 0.46449E-01 SP= 0.21E+01 SK= 0.13E+01
       N       E                     dE             d eps       ncg     rms          rms(c)
RMM:   1    -0.124596357080E+02   -0.38165E-02   -0.11994E-04    68   0.381E-02    0.137E-03
RMM:   2    -0.124596367912E+02   -0.10832E-05   -0.10311E-05    49   0.182E-02
     87 T=   119. E= -.90744713E+01 F= -.12459637E+02 E0= -.12413123E+02  EK= 0.46182E-01 SP= 0.21E+01 SK= 0.12E+01
       N       E                     dE             d eps       ncg     rms          rms(c)
RMM:   1    -0.124633399636E+02   -0.37043E-02   -0.12559E-04    63   0.367E-02    0.280E-03
RMM:   2    -0.124633411407E+02   -0.11771E-05   -0.11003E-05    45   0.178E-02
     88 T=   118. E= -.90744799E+01 F= -.12463341E+02 E0= -.12417044E+02  EK= 0.45872E-01 SP= 0.21E+01 SK= 0.12E+01
       N       E                     dE             d eps       ncg     rms          rms(c)
RMM:   1    -0.124668450992E+02   -0.35051E-02   -0.66381E-05    59   0.324E-02    0.209E-03
RMM:   2    -0.124668458253E+02   -0.72605E-06   -0.74261E-06    43   0.152E-02
     89 T=   117. E= -.90744893E+01 F= -.12466846E+02 E0= -.12420766E+02  EK= 0.45439E-01 SP= 0.22E+01 SK= 0.12E+01
       N       E                     dE             d eps       ncg     rms          rms(c)
RMM:   1    -0.124700633313E+02   -0.32182E-02   -0.18566E-04    69   0.412E-02    0.233E-03
RMM:   2    -0.124700649726E+02   -0.16413E-05   -0.15832E-05    48   0.205E-02
     90 T=   116. E= -.90745004E+01 F= -.12470065E+02 E0= -.12424200E+02  EK= 0.44808E-01 SP= 0.22E+01 SK= 0.12E+01
       N       E                     dE             d eps       ncg     rms          rms(c)
RMM:   1    -0.124729190870E+02   -0.28558E-02   -0.13121E-04    69   0.403E-02    0.162E-03
RMM:   2    -0.124729205211E+02   -0.14341E-05   -0.13648E-05    50   0.194E-02
     91 T=   113. E= -.90745144E+01 F= -.12472921E+02 E0= -.12427265E+02  EK= 0.43919E-01 SP= 0.22E+01 SK= 0.11E+01
       N       E                     dE             d eps       ncg     rms          rms(c)
RMM:   1    -0.124753437031E+02   -0.24246E-02   -0.51232E-05    60   0.288E-02    0.263E-03
RMM:   2    -0.124753442225E+02   -0.51945E-06   -0.50036E-06    37   0.131E-02
     92 T=   110. E= -.90745277E+01 F= -.12475344E+02 E0= -.12429889E+02  EK= 0.42729E-01 SP= 0.22E+01 SK= 0.11E+01
       N       E                     dE             d eps       ncg     rms          rms(c)
RMM:   1    -0.124772819601E+02   -0.19383E-02   -0.11927E-04    65   0.388E-02    0.217E-03
RMM:   2    -0.124772830670E+02   -0.11070E-05   -0.11545E-05    46   0.190E-02
     93 T=   106. E= -.90745403E+01 F= -.12477283E+02 E0= -.12432010E+02  EK= 0.41209E-01 SP= 0.23E+01 SK= 0.11E+01
       N       E                     dE             d eps       ncg     rms          rms(c)
RMM:   1    -0.124787022329E+02   -0.14203E-02   -0.13659E-04    68   0.386E-02    0.184E-03
RMM:   2    -0.124787035432E+02   -0.13103E-05   -0.12417E-05    47   0.182E-02
     94 T=   101. E= -.90745556E+01 F= -.12478704E+02 E0= -.12433592E+02  EK= 0.39348E-01 SP= 0.23E+01 SK= 0.11E+01
       N       E                     dE             d eps       ncg     rms          rms(c)
RMM:   1    -0.124795930217E+02   -0.89079E-03   -0.93655E-05    62   0.359E-02    0.134E-03
RMM:   2    -0.124795939785E+02   -0.95682E-06   -0.89957E-06    43   0.166E-02
     95 T=    96. E= -.90745715E+01 F= -.12479594E+02 E0= -.12434624E+02  EK= 0.37158E-01 SP= 0.23E+01 SK= 0.10E+01
       N       E                     dE             d eps       ncg     rms          rms(c)
RMM:   1    -0.124799665885E+02   -0.37357E-03   -0.98643E-05    62   0.359E-02    0.143E-03
RMM:   2    -0.124799675165E+02   -0.92802E-06   -0.83446E-06    44   0.163E-02
     96 T=    89. E= -.90745849E+01 F= -.12479968E+02 E0= -.12435114E+02  EK= 0.34678E-01 SP= 0.24E+01 SK= 0.10E+01
       N       E                     dE             d eps       ncg     rms          rms(c)
RMM:   1    -0.124798605474E+02    0.10604E-03   -0.68362E-05    62   0.338E-02    0.187E-03
RMM:   2    -0.124798612202E+02   -0.67280E-06   -0.65473E-06    42   0.153E-02
     97 T=    82. E= -.90745939E+01 F= -.12479861E+02 E0= -.12435108E+02  EK= 0.31963E-01 SP= 0.24E+01 SK= 0.99E+00
       N       E                     dE             d eps       ncg     rms          rms(c)
RMM:   1    -0.124793363167E+02    0.52423E-03   -0.75862E-05    63   0.334E-02    0.227E-03
RMM:   2    -0.124793369406E+02   -0.62390E-06   -0.60809E-06    40   0.155E-02
     98 T=    75. E= -.90746010E+01 F= -.12479337E+02 E0= -.12434660E+02  EK= 0.29081E-01 SP= 0.24E+01 SK= 0.96E+00
       N       E                     dE             d eps       ncg     rms          rms(c)
RMM:   1    -0.124784773047E+02    0.85901E-03   -0.65018E-05    61   0.348E-02    0.266E-03
RMM:   2    -0.124784780780E+02   -0.77327E-06   -0.69759E-06    46   0.156E-02
     99 T=    67. E= -.90746088E+01 F= -.12478478E+02 E0= -.12433859E+02  EK= 0.26118E-01 SP= 0.24E+01 SK= 0.94E+00
       N       E                     dE             d eps       ncg     rms          rms(c)
RMM:   1    -0.124773856809E+02    0.10916E-02   -0.40983E-05    58   0.301E-02    0.295E-03
RMM:   2    -0.124773856916E+02   -0.10676E-07   -0.21632E-06    35   0.130E-02
    100 T=    60. E= -.90746176E+01 F= -.12477386E+02 E0= -.12432806E+02  EK= 0.23171E-01 SP= 0.25E+01 SK= 0.91E+00
