 vasp.6.3.0 20Jan22 (build Jan 13 2025 16:42:03) complex                         
 executed on             LinuxGNU date 2025.06.24  19:35:18
 running on    4 total cores
 distrk:  each k-point on    4 cores,    1 groups
 distr:  one band on NCORE=   1 cores,    4 groups


--------------------------------------------------------------------------------------------------------


 INCAR:
   SYSTEM = Al, 4 atoms
   MAXMIX = 60
   NPAR = 4
   LCHARG = .FALSE.
   LWAVE = .FALSE.
   NWRITE = 0
   IALGO = 48
   ISYM = 0
   IBRION = 0
   NBLOCK = 5
   KBLOCK = 1
   SMASS = 1.0
   POTIM = 2.0
   ISIF = 1
   ISMEAR = -1
   TEBEG = 920
   SIGMA = 0.079276
   NSW = 100

 POTCAR:    PAW_PBE Al 04Jan2001                  
 POTCAR:    PAW_PBE Al 04Jan2001                  
  local pseudopotential read in
  partial core-charges read in
  partial kinetic energy density read in
  atomic valenz-charges read in
  non local Contribution for L=           0  read in
    real space projection operators read in
  non local Contribution for L=           0  read in
    real space projection operators read in
  non local Contribution for L=           1  read in
    real space projection operators read in
  non local Contribution for L=           1  read in
    real space projection operators read in
    PAW grid and wavefunctions read in

   number of l-projection  operators is LMAX  =           4
   number of lm-projection operators is LMMAX =           8

  PAW_PBE Al 04Jan2001                  :
 energy of atom  1       EATOM=  -53.5387
 kinetic energy error for atom=    0.0029 (will be added to EATOM!!)


 POSCAR: super cell
  positions in direct lattice
  velocities in cartesian coordinates

  Using predictor-coordinates on the file
 exchange correlation table for  LEXCH =        8
   RHO(1)=    0.500       N(1)  =     2000
   RHO(2)=  100.500       N(2)  =     4000



--------------------------------------------------------------------------------------------------------


 ion  position               nearest neighbor table
   1  0.010  0.009  0.130-   4 2.36   3 2.37   4 2.42   3 2.58   3 3.11   4 3.16   4 3.21   3 3.28

   2  0.452  0.190  0.784-   3 2.41   4 2.94   3 3.23
   3  0.185  0.467  0.468-   1 2.37   2 2.41   4 2.46   1 2.58   1 3.11   2 3.23   1 3.28
   4  0.853  0.334  0.618-   1 2.36   1 2.42   3 2.46   2 2.94   1 3.16   1 3.21


IMPORTANT INFORMATION: All symmetrisations will be switched off!
NOSYMM: (Re-)initialisation of all symmetry stuff for point group C_1.


----------------------------------------------------------------------------------------

                                     Primitive cell                                     

  volume of cell :      89.1401

  direct lattice vectors                    reciprocal lattice vectors
     7.091057987  0.000000000  0.000000000     0.141022680  0.000000000  0.000000000
     0.000000000  3.545528993  0.000000000     0.000000000  0.282045360  0.000000000
     0.000000000  0.000000000  3.545528993     0.000000000  0.000000000  0.282045360

  length of vectors
     7.091057987  3.545528993  3.545528993     0.141022680  0.282045360  0.282045360

  position of ions in fractional coordinates (direct lattice)
     0.009782090  0.009163032  0.130363560
     0.452403470  0.190346820  0.784011690
     0.185304660  0.466816220  0.467982990
     0.852509790  0.333673920  0.617641770

  ion indices of the primitive-cell ions
   primitive index   ion index
                 1           1
                 2           2
                 3           3
                 4           4

----------------------------------------------------------------------------------------



 KPOINTS:       K-Points                          

Automatic generation of k-mesh.
 Grid dimensions read from file:
 generate k-points for:    2    2    2

 Generating k-lattice:

  Cartesian coordinates                     Fractional coordinates (reciprocal lattice)
     0.070511340  0.000000000  0.000000000     0.500000000  0.000000000  0.000000000
     0.000000000  0.141022680  0.000000000     0.000000000  0.500000000  0.000000000
     0.000000000  0.000000000  0.141022680     0.000000000  0.000000000  0.500000000

  Length of vectors
     0.070511340  0.141022680  0.141022680

  Shift w.r.t. Gamma in fractional coordinates (k-lattice)
     0.500000000  0.500000000  0.500000000

 
 Subroutine IBZKPT returns following result:
 ===========================================
 
 Found      4 irreducible k-points:
 
 Following reciprocal coordinates:
            Coordinates               Weight
  0.250000  0.250000  0.250000      2.000000
  0.250000 -0.250000  0.250000      2.000000
  0.250000 -0.250000 -0.250000      2.000000
  0.250000  0.250000 -0.250000      2.000000
 
 Following cartesian coordinates:
            Coordinates               Weight
  0.035256  0.070511  0.070511      2.000000
  0.035256 -0.070511  0.070511      2.000000
  0.035256 -0.070511 -0.070511      2.000000
  0.035256  0.070511 -0.070511      2.000000
 


--------------------------------------------------------------------------------------------------------




 Dimension of arrays:
   k-points           NKPTS =      4   k-points in BZ     NKDIM =      4   number of bands    NBANDS=     12
   number of dos      NEDOS =    301   number of ions     NIONS =      4
   non local maximal  LDIM  =      4   non local SUM 2l+1 LMDIM =      8
   total plane-waves  NPLWV =   5488
   max r-space proj   IRMAX =      1   max aug-charges    IRDMAX=   2595
   dimension x,y,z NGX =    28 NGY =   14 NGZ =   14
   dimension x,y,z NGXF=    56 NGYF=   28 NGZF=   28
   support grid    NGXF=    56 NGYF=   28 NGZF=   28
   ions per type =               4
   NGX,Y,Z   is equivalent  to a cutoff of   6.56,  6.56,  6.56 a.u.
   NGXF,Y,Z  is equivalent  to a cutoff of  13.13, 13.13, 13.13 a.u.

 SYSTEM =  Al, 4 atoms                             
 POSCAR =  super cell                              

 Startparameter for this run:
   NWRITE =      0    write-flag & timer
   PREC   = normal    normal or accurate (medium, high low for compatibility)
   ISTART =      0    job   : 0-new  1-cont  2-samecut
   ICHARG =      2    charge: 1-file 2-atom 10-const
   ISPIN  =      1    spin polarized calculation?
   LNONCOLLINEAR =      F non collinear calculations
   LSORBIT =      F    spin-orbit coupling
   INIWAV =      1    electr: 0-lowe 1-rand  2-diag
   LASPH  =      F    aspherical Exc in radial PAW
 Electronic Relaxation 1
   ENCUT  =  240.3 eV  17.66 Ry    4.20 a.u.   8.96  4.48  4.48*2*pi/ulx,y,z
   ENINI  =  240.3     initial cutoff
   ENAUG  =  291.1 eV  augmentation charge cutoff
   NELM   =     60;   NELMIN=  2; NELMDL=  0     # of ELM steps 
   EDIFF  = 0.1E-03   stopping-criterion for ELM
   LREAL  =      F    real-space projection
   NLSPLINE    = F    spline interpolate recip. space projectors
   LCOMPAT=      F    compatible to vasp.4.4
   GGA_COMPAT  = T    GGA compatible to vasp.4.4-vasp.4.6
   LMAXPAW     = -100 max onsite density
   LMAXMIX     =    2 max onsite mixed and CHGCAR
   VOSKOWN=      0    Vosko Wilk Nusair interpolation
   ROPT   =    0.00000
 Ionic relaxation
   EDIFFG = 0.1E-02   stopping-criterion for IOM
   NSW    =    100    number of steps for IOM
   NBLOCK =      5;   KBLOCK =      1    inner block; outer block 
   IBRION =      0    ionic relax: 0-MD 1-quasi-New 2-CG
   NFREE  =      0    steps in history (QN), initial steepest desc. (CG)
   ISIF   =      1    stress and relaxation
   IWAVPR =     12    prediction:  0-non 1-charg 2-wave 3-comb
   ISYM   =      0    0-nonsym 1-usesym 2-fastsym
   LCORR  =      T    Harris-Foulkes like correction to forces

   POTIM  = 2.0000    time-step for ionic-motion
   TEIN   = 6192.7    initial temperature
   TEBEG  =  920.0;   TEEND  = 920.0 temperature during run
   SMASS  =   1.00    Nose mass-parameter (am)
   estimated Nose-frequenzy (Omega)   =  0.17E+14 period in steps = 0.19E+03 mass=   0.383E-27a.u.
   SCALEE = 1.0000    scale energy and forces
   NPACO  =    256;   APACO  = 10.0  distance and # of slots for P.C.
   PSTRESS=    0.0 pullay stress

  Mass of Ions in am
   POMASS =  26.98
  Ionic Valenz
   ZVAL   =   3.00
  Atomic Wigner-Seitz radii
   RWIGS  =  -1.00
  virtual crystal weights 
   VCA    =   1.00
   NELECT =      12.0000    total number of electrons
   NUPDOWN=      -1.0000    fix difference up-down

 DOS related values:
   EMIN   =  10.00;   EMAX   =-10.00  energy-range for DOS
   EFERMI =   0.00
   ISMEAR =    -1;   SIGMA  =   0.08  broadening in eV -4-tet -1-fermi 0-gaus

 Electronic relaxation 2 (details)
   IALGO  =     48    algorithm
   LDIAG  =      T    sub-space diagonalisation (order eigenvalues)
   LSUBROT=      F    optimize rotation matrix (better conditioning)
   TURBO    =      0    0=normal 1=particle mesh
   IRESTART =      0    0=no restart 2=restart with 2 vectors
   NREBOOT  =      0    no. of reboots
   NMIN     =      0    reboot dimension
   EREF     =   0.00    reference energy to select bands
   IMIX   =      4    mixing-type and parameters
     AMIX     =   0.40;   BMIX     =  1.00
     AMIX_MAG =   1.60;   BMIX_MAG =  1.00
     AMIN     =   0.10
     WC   =   100.;   INIMIX=   1;  MIXPRE=   1;  MAXMIX=  60

 Intra band minimization:
   WEIMIN = 0.0010     energy-eigenvalue tresh-hold
   EBREAK =  0.21E-05  absolut break condition
   DEPER  =   0.30     relativ break condition  

   TIME   =   0.40     timestep for ELM

  volume/ion in A,a.u.               =      22.29       150.39
  Fermi-wavevector in a.u.,A,eV,Ry     =   0.839030  1.585537  9.578114  0.703972
  Thomas-Fermi vector in A             =   1.953182

 Write flags
   LWAVE        =      F    write WAVECAR
   LDOWNSAMPLE  =      F    k-point downsampling of WAVECAR
   LCHARG       =      F    write CHGCAR
   LVTOT        =      F    write LOCPOT, total local potential
   LVHAR        =      F    write LOCPOT, Hartree potential only
   LELF         =      F    write electronic localiz. function (ELF)
   LORBIT       =      0    0 simple, 1 ext, 2 COOP (PROOUT), +10 PAW based schemes


 Dipole corrections
   LMONO  =      F    monopole corrections only (constant potential shift)
   LDIPOL =      F    correct potential (dipole corrections)
   IDIPOL =      0    1-x, 2-y, 3-z, 4-all directions 
   EPSILON=  1.0000000 bulk dielectric constant

 Exchange correlation treatment:
   GGA     =    --    GGA type
   LEXCH   =     8    internal setting for exchange type
   LIBXC   =     F    Libxc                    
   VOSKOWN =     0    Vosko Wilk Nusair interpolation
   LHFCALC =     F    Hartree Fock is set to
   LHFONE  =     F    Hartree Fock one center treatment
   AEXX    =    0.0000 exact exchange contribution

 Linear response parameters
   LEPSILON=     F    determine dielectric tensor
   LRPA    =     F    only Hartree local field effects (RPA)
   LNABLA  =     F    use nabla operator in PAW spheres
   LVEL    =     F    velocity operator in full k-point grid
   CSHIFT  =0.1000    complex shift for real part using Kramers Kronig
   OMEGAMAX=  -1.0    maximum frequency
   DEG_THRESHOLD= 0.2000000E-02 threshold for treating states as degnerate
   RTIME   =   -0.100 relaxation time in fs
  (WPLASMAI=    0.000 imaginary part of plasma frequency in eV, 0.658/RTIME)
   DFIELD  = 0.0000000 0.0000000 0.0000000 field for delta impulse in time

  Optional k-point grid parameters
   LKPOINTS_OPT  =     F    use optional k-point grid
   KPOINTS_OPT_MODE=     1    mode for optional k-point grid

 Orbital magnetization related:
   ORBITALMAG=     F  switch on orbital magnetization
   LCHIMAG   =     F  perturbation theory with respect to B field
   DQ        =  0.001000  dq finite difference perturbation B field
   LLRAUG    =     F  two centre corrections for induced B field



--------------------------------------------------------------------------------------------------------


 molecular dynamics for ions
   using nose mass (canonical ensemble)
 charge density and potential will be updated during run
 non-spin polarized calculation
 RMM-DIIS sequential band-by-band
 perform sub-space diagonalisation
    before iterative eigenvector-optimisation
 modified Broyden-mixing scheme, WC =      100.0
 initial mixing is a Kerker type mixing with AMIX =  0.4000 and BMIX =      1.0000
 Hartree-type preconditioning will be used
 using additional bands            6
 reciprocal scheme for non local part
 use partial core corrections
 calculate Harris-corrections to forces   (improved forces if not selfconsistent)
 use gradient corrections 
 use of overlap-Matrix (Vanderbilt PP)
 Fermi-smearing in eV        SIGMA  =   0.08


--------------------------------------------------------------------------------------------------------


  energy-cutoff  :      240.30
  volume of cell :       89.14
      direct lattice vectors                 reciprocal lattice vectors
     7.091057987  0.000000000  0.000000000     0.141022680  0.000000000  0.000000000
     0.000000000  3.545528993  0.000000000     0.000000000  0.282045360  0.000000000
     0.000000000  0.000000000  3.545528993     0.000000000  0.000000000  0.282045360

  length of vectors
     7.091057987  3.545528993  3.545528993     0.141022680  0.282045360  0.282045360



 k-points in units of 2pi/SCALE and weight:       K-Points                          
   0.03525567  0.07051134  0.07051134       0.250
   0.03525567 -0.07051134  0.07051134       0.250
   0.03525567 -0.07051134 -0.07051134       0.250
   0.03525567  0.07051134 -0.07051134       0.250

 k-points in reciprocal lattice and weights:       K-Points                          
   0.25000000  0.25000000  0.25000000       0.250
   0.25000000 -0.25000000  0.25000000       0.250
   0.25000000 -0.25000000 -0.25000000       0.250
   0.25000000  0.25000000 -0.25000000       0.250

 position of ions in fractional coordinates (direct lattice) 
   0.00978209  0.00916303  0.13036356
   0.45240347  0.19034682  0.78401169
   0.18530466  0.46681622  0.46798299
   0.85250979  0.33367392  0.61764177

 position of ions in cartesian coordinates  (Angst):
   0.06936536  0.03248780  0.46220778
   3.20801924  0.67488017  2.77973618
   1.31400609  1.65511044  1.65924726
   6.04519636  1.18305056  2.18986680



--------------------------------------------------------------------------------------------------------


 k-point   1 :   0.2500 0.2500 0.2500  plane waves:     756
 k-point   2 :   0.2500-0.2500 0.2500  plane waves:     756
 k-point   3 :   0.2500-0.2500-0.2500  plane waves:     756
 k-point   4 :   0.2500 0.2500-0.2500  plane waves:     756

 maximum and minimum number of plane-waves per node :       756      756

 maximum number of plane-waves:       756
 maximum index in each direction: 
   IXMAX=    8   IYMAX=    4   IZMAX=    4
   IXMIN=   -9   IYMIN=   -4   IZMIN=   -4


 serial   3D FFT for wavefunctions
 parallel 3D FFT for charge:
    minimum data exchange during FFTs selected (reduces bandwidth)


 total amount of memory used by VASP MPI-rank0    31599. kBytes
=======================================================================

   base      :      30000. kBytes
   nonl-proj :        241. kBytes
   fftplans  :        418. kBytes
   grid      :        777. kBytes
   one-center:         12. kBytes
   wavefun   :        151. kBytes

     INWAV:  cpu time      0.0000: real time      0.0000
 Broyden mixing: mesh for mixing (old mesh)
   NGX = 17   NGY =  9   NGZ =  9
  (NGX  = 56   NGY  = 28   NGZ  = 28)
  gives a total of   1377 points

 initial charge density was supplied:
 charge density of overlapping atoms calculated
 number of electron      12.0000000 magnetization 
 keeping initial charge density in first step


--------------------------------------------------------------------------------------------------------


 Maximum index for augmentation-charges          597 (set IRDMAX)


--------------------------------------------------------------------------------------------------------


 First call to EWALD:  gamma=   0.397
 Maximum number of real-space cells 2x 3x 3
 Maximum number of reciprocal cells 4x 2x 2

    FEWALD:  cpu time      0.0004: real time      0.0004


--------------------------------------- Iteration      1(   1)  ---------------------------------------


    POTLOK:  cpu time      0.0053: real time      0.0053
    SETDIJ:  cpu time      0.0011: real time      0.0011
    EDDIAG:  cpu time      0.0042: real time      0.0042
  RMM-DIIS:  cpu time      0.0051: real time      0.0051
    ORTHCH:  cpu time      0.0004: real time      0.0004
       DOS:  cpu time      0.0001: real time      0.0001
    --------------------------------------------
      LOOP:  cpu time      0.0162: real time      0.0162

 eigenvalue-minimisations  :    48
 total energy-change (2. order) : 0.2227566E+02  (-0.1517224E+03)
 number of electron      12.0000000 magnetization 
 augmentation part       12.0000000 magnetization 

 Free energy of the ion-electron system (eV)
  ---------------------------------------------------
  alpha Z        PSCENC =        -0.60288196
  Ewald energy   TEWEN  =      -235.98585236
  -Hartree energ DENC   =       -19.40020629
  -exchange      EXHF   =         0.00000000
  -V(xc)+E(xc)   XCENC  =      -106.40000679
  PAW double counting   =       264.80062850     -136.98248303
  entropy T*S    EENTRO =        -0.05682657
  eigenvalues    EBANDS =        42.76007708
  atomic energy  EATOM  =       214.14321246
  Solvation  Ediel_sol  =         0.00000000
  ---------------------------------------------------
  free energy    TOTEN  =        22.27566104 eV

  energy without entropy =       22.33248761  energy(sigma->0) =       22.30407433


--------------------------------------------------------------------------------------------------------




--------------------------------------- Iteration      1(   2)  ---------------------------------------


    EDDIAG:  cpu time      0.0038: real time      0.0038
  RMM-DIIS:  cpu time      0.0043: real time      0.0043
    ORTHCH:  cpu time      0.0004: real time      0.0004
       DOS:  cpu time      0.0001: real time      0.0001
    --------------------------------------------
      LOOP:  cpu time      0.0085: real time      0.0085

 eigenvalue-minimisations  :    48
 total energy-change (2. order) :-0.2771490E+02  (-0.2523275E+02)
 number of electron      12.0000000 magnetization 
 augmentation part       12.0000000 magnetization 

 Free energy of the ion-electron system (eV)
  ---------------------------------------------------
  alpha Z        PSCENC =        -0.60288196
  Ewald energy   TEWEN  =      -235.98585236
  -Hartree energ DENC   =       -19.40020629
  -exchange      EXHF   =         0.00000000
  -V(xc)+E(xc)   XCENC  =      -106.40000679
  PAW double counting   =       264.80062850     -136.98248303
  entropy T*S    EENTRO =        -0.03640516
  eigenvalues    EBANDS =        15.02475338
  atomic energy  EATOM  =       214.14321246
  Solvation  Ediel_sol  =         0.00000000
  ---------------------------------------------------
  free energy    TOTEN  =        -5.43924125 eV

  energy without entropy =       -5.40283608  energy(sigma->0) =       -5.42103867


--------------------------------------------------------------------------------------------------------




--------------------------------------- Iteration      1(   3)  ---------------------------------------


    EDDIAG:  cpu time      0.0033: real time      0.0033
  RMM-DIIS:  cpu time      0.0048: real time      0.0048
    ORTHCH:  cpu time      0.0005: real time      0.0005
       DOS:  cpu time      0.0001: real time      0.0001
    --------------------------------------------
      LOOP:  cpu time      0.0087: real time      0.0087

 eigenvalue-minimisations  :    48
 total energy-change (2. order) :-0.5574578E+01  (-0.4448934E+01)
 number of electron      12.0000000 magnetization 
 augmentation part       12.0000000 magnetization 

 Free energy of the ion-electron system (eV)
  ---------------------------------------------------
  alpha Z        PSCENC =        -0.60288196
  Ewald energy   TEWEN  =      -235.98585236
  -Hartree energ DENC   =       -19.40020629
  -exchange      EXHF   =         0.00000000
  -V(xc)+E(xc)   XCENC  =      -106.40000679
  PAW double counting   =       264.80062850     -136.98248303
  entropy T*S    EENTRO =        -0.06982403
  eigenvalues    EBANDS =         9.48359418
  atomic energy  EATOM  =       214.14321246
  Solvation  Ediel_sol  =         0.00000000
  ---------------------------------------------------
  free energy    TOTEN  =       -11.01381932 eV

  energy without entropy =      -10.94399529  energy(sigma->0) =      -10.97890730


--------------------------------------------------------------------------------------------------------




--------------------------------------- Iteration      1(   4)  ---------------------------------------


    EDDIAG:  cpu time      0.0048: real time      0.0048
  RMM-DIIS:  cpu time      0.0053: real time      0.0053
    ORTHCH:  cpu time      0.0004: real time      0.0004
       DOS:  cpu time      0.0001: real time      0.0001
    --------------------------------------------
      LOOP:  cpu time      0.0106: real time      0.0106

 eigenvalue-minimisations  :    48
 total energy-change (2. order) :-0.1231076E+01  (-0.8312861E+00)
 number of electron      12.0000000 magnetization 
 augmentation part       12.0000000 magnetization 

 Free energy of the ion-electron system (eV)
  ---------------------------------------------------
  alpha Z        PSCENC =        -0.60288196
  Ewald energy   TEWEN  =      -235.98585236
  -Hartree energ DENC   =       -19.40020629
  -exchange      EXHF   =         0.00000000
  -V(xc)+E(xc)   XCENC  =      -106.40000679
  PAW double counting   =       264.80062850     -136.98248303
  entropy T*S    EENTRO =        -0.05966453
  eigenvalues    EBANDS =         8.24235891
  atomic energy  EATOM  =       214.14321246
  Solvation  Ediel_sol  =         0.00000000
  ---------------------------------------------------
  free energy    TOTEN  =       -12.24489509 eV

  energy without entropy =      -12.18523056  energy(sigma->0) =      -12.21506283


--------------------------------------------------------------------------------------------------------




--------------------------------------- Iteration      1(   5)  ---------------------------------------


    EDDIAG:  cpu time      0.0038: real time      0.0038
  RMM-DIIS:  cpu time      0.0051: real time      0.0051
    ORTHCH:  cpu time      0.0005: real time      0.0005
       DOS:  cpu time      0.0001: real time      0.0001
    --------------------------------------------
      LOOP:  cpu time      0.0094: real time      0.0094

 eigenvalue-minimisations  :    48
 total energy-change (2. order) :-0.3202136E+00  (-0.1882743E+00)
 number of electron      12.0000000 magnetization 
 augmentation part       12.0000000 magnetization 

 Free energy of the ion-electron system (eV)
  ---------------------------------------------------
  alpha Z        PSCENC =        -0.60288196
  Ewald energy   TEWEN  =      -235.98585236
  -Hartree energ DENC   =       -19.40020629
  -exchange      EXHF   =         0.00000000
  -V(xc)+E(xc)   XCENC  =      -106.40000679
  PAW double counting   =       264.80062850     -136.98248303
  entropy T*S    EENTRO =        -0.06241064
  eigenvalues    EBANDS =         7.92489145
  atomic energy  EATOM  =       214.14321246
  Solvation  Ediel_sol  =         0.00000000
  ---------------------------------------------------
  free energy    TOTEN  =       -12.56510865 eV

  energy without entropy =      -12.50269801  energy(sigma->0) =      -12.53390333


--------------------------------------------------------------------------------------------------------




--------------------------------------- Iteration      1(   6)  ---------------------------------------


    EDDIAG:  cpu time      0.0049: real time      0.0049
  RMM-DIIS:  cpu time      0.0058: real time      0.0058
    ORTHCH:  cpu time      0.0004: real time      0.0004
       DOS:  cpu time      0.0001: real time      0.0001
    --------------------------------------------
      LOOP:  cpu time      0.0113: real time      0.0113

 eigenvalue-minimisations  :    48
 total energy-change (2. order) :-0.7218144E-01  (-0.4838411E-01)
 number of electron      12.0000000 magnetization 
 augmentation part       12.0000000 magnetization 

 Free energy of the ion-electron system (eV)
  ---------------------------------------------------
  alpha Z        PSCENC =        -0.60288196
  Ewald energy   TEWEN  =      -235.98585236
  -Hartree energ DENC   =       -19.40020629
  -exchange      EXHF   =         0.00000000
  -V(xc)+E(xc)   XCENC  =      -106.40000679
  PAW double counting   =       264.80062850     -136.98248303
  entropy T*S    EENTRO =        -0.05872560
  eigenvalues    EBANDS =         7.84902498
  atomic energy  EATOM  =       214.14321246
  Solvation  Ediel_sol  =         0.00000000
  ---------------------------------------------------
  free energy    TOTEN  =       -12.63729009 eV

  energy without entropy =      -12.57856449  energy(sigma->0) =      -12.60792729


--------------------------------------------------------------------------------------------------------




--------------------------------------- Iteration      1(   7)  ---------------------------------------


    EDDIAG:  cpu time      0.0036: real time      0.0036
  RMM-DIIS:  cpu time      0.0048: real time      0.0048
    ORTHCH:  cpu time      0.0004: real time      0.0004
       DOS:  cpu time      0.0001: real time      0.0001
    --------------------------------------------
      LOOP:  cpu time      0.0090: real time      0.0090

 eigenvalue-minimisations  :    48
 total energy-change (2. order) :-0.1512610E-01  (-0.1245352E-01)
 number of electron      12.0000000 magnetization 
 augmentation part       12.0000000 magnetization 

 Free energy of the ion-electron system (eV)
  ---------------------------------------------------
  alpha Z        PSCENC =        -0.60288196
  Ewald energy   TEWEN  =      -235.98585236
  -Hartree energ DENC   =       -19.40020629
  -exchange      EXHF   =         0.00000000
  -V(xc)+E(xc)   XCENC  =      -106.40000679
  PAW double counting   =       264.80062850     -136.98248303
  entropy T*S    EENTRO =        -0.05853631
  eigenvalues    EBANDS =         7.83370958
  atomic energy  EATOM  =       214.14321246
  Solvation  Ediel_sol  =         0.00000000
  ---------------------------------------------------
  free energy    TOTEN  =       -12.65241619 eV

  energy without entropy =      -12.59387988  energy(sigma->0) =      -12.62314804


--------------------------------------------------------------------------------------------------------




--------------------------------------- Iteration      1(   8)  ---------------------------------------


    EDDIAG:  cpu time      0.0043: real time      0.0043
  RMM-DIIS:  cpu time      0.0048: real time      0.0048
    ORTHCH:  cpu time      0.0004: real time      0.0004
       DOS:  cpu time      0.0001: real time      0.0001
    --------------------------------------------
      LOOP:  cpu time      0.0096: real time      0.0096

 eigenvalue-minimisations  :    48
 total energy-change (2. order) :-0.3647710E-02  (-0.3232316E-02)
 number of electron      12.0000000 magnetization 
 augmentation part       12.0000000 magnetization 

 Free energy of the ion-electron system (eV)
  ---------------------------------------------------
  alpha Z        PSCENC =        -0.60288196
  Ewald energy   TEWEN  =      -235.98585236
  -Hartree energ DENC   =       -19.40020629
  -exchange      EXHF   =         0.00000000
  -V(xc)+E(xc)   XCENC  =      -106.40000679
  PAW double counting   =       264.80062850     -136.98248303
  entropy T*S    EENTRO =        -0.05855750
  eigenvalues    EBANDS =         7.83008307
  atomic energy  EATOM  =       214.14321246
  Solvation  Ediel_sol  =         0.00000000
  ---------------------------------------------------
  free energy    TOTEN  =       -12.65606390 eV

  energy without entropy =      -12.59750640  energy(sigma->0) =      -12.62678515


--------------------------------------------------------------------------------------------------------




--------------------------------------- Iteration      1(   9)  ---------------------------------------


    EDDIAG:  cpu time      0.0037: real time      0.0037
  RMM-DIIS:  cpu time      0.0071: real time      0.0071
    ORTHCH:  cpu time      0.0003: real time      0.0003
       DOS:  cpu time      0.0001: real time      0.0001
    --------------------------------------------
      LOOP:  cpu time      0.0111: real time      0.0111

 eigenvalue-minimisations  :   100
 total energy-change (2. order) :-0.8998941E-03  (-0.8459978E-03)
 number of electron      12.0000000 magnetization 
 augmentation part       12.0000000 magnetization 

 Free energy of the ion-electron system (eV)
  ---------------------------------------------------
  alpha Z        PSCENC =        -0.60288196
  Ewald energy   TEWEN  =      -235.98585236
  -Hartree energ DENC   =       -19.40020629
  -exchange      EXHF   =         0.00000000
  -V(xc)+E(xc)   XCENC  =      -106.40000679
  PAW double counting   =       264.80062850     -136.98248303
  entropy T*S    EENTRO =        -0.05856975
  eigenvalues    EBANDS =         7.82919542
  atomic energy  EATOM  =       214.14321246
  Solvation  Ediel_sol  =         0.00000000
  ---------------------------------------------------
  free energy    TOTEN  =       -12.65696380 eV

  energy without entropy =      -12.59839405  energy(sigma->0) =      -12.62767892


--------------------------------------------------------------------------------------------------------




--------------------------------------- Iteration      1(  10)  ---------------------------------------


    EDDIAG:  cpu time      0.0040: real time      0.0040
  RMM-DIIS:  cpu time      0.0072: real time      0.0072
    ORTHCH:  cpu time      0.0004: real time      0.0004
       DOS:  cpu time      0.0001: real time      0.0001
    --------------------------------------------
      LOOP:  cpu time      0.0118: real time      0.0118

 eigenvalue-minimisations  :    94
 total energy-change (2. order) :-0.2980953E-03  (-0.2914378E-03)
 number of electron      12.0000000 magnetization 
 augmentation part       12.0000000 magnetization 

 Free energy of the ion-electron system (eV)
  ---------------------------------------------------
  alpha Z        PSCENC =        -0.60288196
  Ewald energy   TEWEN  =      -235.98585236
  -Hartree energ DENC   =       -19.40020629
  -exchange      EXHF   =         0.00000000
  -V(xc)+E(xc)   XCENC  =      -106.40000679
  PAW double counting   =       264.80062850     -136.98248303
  entropy T*S    EENTRO =        -0.05857445
  eigenvalues    EBANDS =         7.82890203
  atomic energy  EATOM  =       214.14321246
  Solvation  Ediel_sol  =         0.00000000
  ---------------------------------------------------
  free energy    TOTEN  =       -12.65726189 eV

  energy without entropy =      -12.59868744  energy(sigma->0) =      -12.62797467


--------------------------------------------------------------------------------------------------------




--------------------------------------- Iteration      1(  11)  ---------------------------------------


    EDDIAG:  cpu time      0.0038: real time      0.0038
  RMM-DIIS:  cpu time      0.0074: real time      0.0074
    ORTHCH:  cpu time      0.0007: real time      0.0007
       DOS:  cpu time      0.0002: real time      0.0002
    --------------------------------------------
      LOOP:  cpu time      0.0121: real time      0.0121

 eigenvalue-minimisations  :    77
 total energy-change (2. order) :-0.4167218E-04  (-0.3945899E-04)
 number of electron      12.0000000 magnetization 
 augmentation part       12.0000000 magnetization 

 Free energy of the ion-electron system (eV)
  ---------------------------------------------------
  alpha Z        PSCENC =        -0.60288196
  Ewald energy   TEWEN  =      -235.98585236
  -Hartree energ DENC   =       -19.40020629
  -exchange      EXHF   =         0.00000000
  -V(xc)+E(xc)   XCENC  =      -106.40000679
  PAW double counting   =       264.80062850     -136.98248303
  entropy T*S    EENTRO =        -0.05857507
  eigenvalues    EBANDS =         7.82886097
  atomic energy  EATOM  =       214.14321246
  Solvation  Ediel_sol  =         0.00000000
  ---------------------------------------------------
  free energy    TOTEN  =       -12.65730356 eV

  energy without entropy =      -12.59872850  energy(sigma->0) =      -12.62801603


--------------------------------------------------------------------------------------------------------




--------------------------------------- Iteration      1(  12)  ---------------------------------------


    EDDIAG:  cpu time      0.0044: real time      0.0044
  RMM-DIIS:  cpu time      0.0088: real time      0.0088
    ORTHCH:  cpu time      0.0005: real time      0.0005
       DOS:  cpu time      0.0002: real time      0.0002
    CHARGE:  cpu time      0.0021: real time      0.0021
    MIXING:  cpu time      0.0002: real time      0.0002
    --------------------------------------------
      LOOP:  cpu time      0.0162: real time      0.0162

 eigenvalue-minimisations  :    74
 total energy-change (2. order) :-0.1399857E-04  (-0.1378646E-04)
 number of electron      12.0000002 magnetization 
 augmentation part       -0.1690201 magnetization 

 Broyden mixing:
  rms(total) = 0.45127E+00    rms(broyden)= 0.45126E+00
  rms(prec ) = 0.11109E+01
  weight for this iteration     100.00

 Free energy of the ion-electron system (eV)
  ---------------------------------------------------
  alpha Z        PSCENC =        -0.60288196
  Ewald energy   TEWEN  =      -235.98585236
  -Hartree energ DENC   =       -19.40020629
  -exchange      EXHF   =         0.00000000
  -V(xc)+E(xc)   XCENC  =      -106.40000679
  PAW double counting   =       264.80062850     -136.98248303
  entropy T*S    EENTRO =        -0.05857526
  eigenvalues    EBANDS =         7.82884716
  atomic energy  EATOM  =       214.14321246
  Solvation  Ediel_sol  =         0.00000000
  ---------------------------------------------------
  free energy    TOTEN  =       -12.65731756 eV

  energy without entropy =      -12.59874230  energy(sigma->0) =      -12.62802993


--------------------------------------------------------------------------------------------------------




--------------------------------------- Iteration      1(  13)  ---------------------------------------


    POTLOK:  cpu time      0.0055: real time      0.0055
    SETDIJ:  cpu time      0.0012: real time      0.0012
    EDDIAG:  cpu time      0.0040: real time      0.0040
  RMM-DIIS:  cpu time      0.0111: real time      0.0111
    ORTHCH:  cpu time      0.0003: real time      0.0003
       DOS:  cpu time      0.0001: real time      0.0001
    CHARGE:  cpu time      0.0014: real time      0.0014
    MIXING:  cpu time      0.0003: real time      0.0003
    --------------------------------------------
      LOOP:  cpu time      0.0239: real time      0.0239

 eigenvalue-minimisations  :   152
 total energy-change (2. order) : 0.1268143E+01  (-0.1593222E+00)
 number of electron      12.0000001 magnetization 
 augmentation part       -0.1719416 magnetization 

 Broyden mixing:
  rms(total) = 0.20966E+00    rms(broyden)= 0.20966E+00
  rms(prec ) = 0.34974E+00
  weight for this iteration     100.00

 eigenvalues of (default mixing * dielectric matrix)
  average eigenvalue GAMMA=   1.5189
  1.5189

 Free energy of the ion-electron system (eV)
  ---------------------------------------------------
  alpha Z        PSCENC =        -0.60288196
  Ewald energy   TEWEN  =      -235.98585236
  -Hartree energ DENC   =       -23.08649905
  -exchange      EXHF   =         0.00000000
  -V(xc)+E(xc)   XCENC  =      -106.13699889
  PAW double counting   =       436.71695667     -308.99196927
  entropy T*S    EENTRO =        -0.09795567
  eigenvalues    EBANDS =        12.65281366
  atomic energy  EATOM  =       214.14321246
  Solvation  Ediel_sol  =         0.00000000
  ---------------------------------------------------
  free energy    TOTEN  =       -11.38917442 eV

  energy without entropy =      -11.29121875  energy(sigma->0) =      -11.34019658


--------------------------------------------------------------------------------------------------------




--------------------------------------- Iteration      1(  14)  ---------------------------------------


    POTLOK:  cpu time      0.0043: real time      0.0043
    SETDIJ:  cpu time      0.0011: real time      0.0011
    EDDIAG:  cpu time      0.0047: real time      0.0047
  RMM-DIIS:  cpu time      0.0095: real time      0.0095
    ORTHCH:  cpu time      0.0003: real time      0.0003
       DOS:  cpu time      0.0001: real time      0.0001
    CHARGE:  cpu time      0.0012: real time      0.0012
    MIXING:  cpu time      0.0001: real time      0.0001
    --------------------------------------------
      LOOP:  cpu time      0.0213: real time      0.0213

 eigenvalue-minimisations  :   132
 total energy-change (2. order) : 0.9376466E-01  (-0.1614090E-01)
 number of electron      12.0000001 magnetization 
 augmentation part       -0.1733027 magnetization 

 Broyden mixing:
  rms(total) = 0.96611E-01    rms(broyden)= 0.96610E-01
  rms(prec ) = 0.13773E+00
  weight for this iteration     100.00

 eigenvalues of (default mixing * dielectric matrix)
  average eigenvalue GAMMA=   1.5099
  1.0298  1.9900

 Free energy of the ion-electron system (eV)
  ---------------------------------------------------
  alpha Z        PSCENC =        -0.60288196
  Ewald energy   TEWEN  =      -235.98585236
  -Hartree energ DENC   =       -24.22936031
  -exchange      EXHF   =         0.00000000
  -V(xc)+E(xc)   XCENC  =      -105.97987184
  PAW double counting   =       592.52980438     -464.85462142
  entropy T*S    EENTRO =        -0.09884458
  eigenvalues    EBANDS =        13.78300588
  atomic energy  EATOM  =       214.14321246
  Solvation  Ediel_sol  =         0.00000000
  ---------------------------------------------------
  free energy    TOTEN  =       -11.29540975 eV

  energy without entropy =      -11.19656517  energy(sigma->0) =      -11.24598746


--------------------------------------------------------------------------------------------------------




--------------------------------------- Iteration      1(  15)  ---------------------------------------


    POTLOK:  cpu time      0.0035: real time      0.0035
    SETDIJ:  cpu time      0.0006: real time      0.0006
    EDDIAG:  cpu time      0.0035: real time      0.0035
  RMM-DIIS:  cpu time      0.0075: real time      0.0076
    ORTHCH:  cpu time      0.0005: real time      0.0005
       DOS:  cpu time      0.0001: real time      0.0001
    CHARGE:  cpu time      0.0017: real time      0.0017
    MIXING:  cpu time      0.0002: real time      0.0002
    --------------------------------------------
      LOOP:  cpu time      0.0177: real time      0.0177

 eigenvalue-minimisations  :    96
 total energy-change (2. order) : 0.8714614E-02  (-0.9203309E-03)
 number of electron      12.0000001 magnetization 
 augmentation part       -0.1736657 magnetization 

 Broyden mixing:
  rms(total) = 0.47372E-01    rms(broyden)= 0.47372E-01
  rms(prec ) = 0.67335E-01
  weight for this iteration     100.00

 eigenvalues of (default mixing * dielectric matrix)
  average eigenvalue GAMMA=   1.4591
  2.2877  1.2467  0.8429

 Free energy of the ion-electron system (eV)
  ---------------------------------------------------
  alpha Z        PSCENC =        -0.60288196
  Ewald energy   TEWEN  =      -235.98585236
  -Hartree energ DENC   =       -24.44987000
  -exchange      EXHF   =         0.00000000
  -V(xc)+E(xc)   XCENC  =      -105.90421231
  PAW double counting   =       678.93841937     -551.28545967
  entropy T*S    EENTRO =        -0.10024703
  eigenvalues    EBANDS =        13.96019637
  atomic energy  EATOM  =       214.14321246
  Solvation  Ediel_sol  =         0.00000000
  ---------------------------------------------------
  free energy    TOTEN  =       -11.28669514 eV

  energy without entropy =      -11.18644811  energy(sigma->0) =      -11.23657162


--------------------------------------------------------------------------------------------------------




--------------------------------------- Iteration      1(  16)  ---------------------------------------


    POTLOK:  cpu time      0.0038: real time      0.0038
    SETDIJ:  cpu time      0.0008: real time      0.0008
    EDDIAG:  cpu time      0.0036: real time      0.0036
  RMM-DIIS:  cpu time      0.0074: real time      0.0074
    ORTHCH:  cpu time      0.0004: real time      0.0004
       DOS:  cpu time      0.0001: real time      0.0001
    CHARGE:  cpu time      0.0013: real time      0.0013
    MIXING:  cpu time      0.0002: real time      0.0002
    --------------------------------------------
      LOOP:  cpu time      0.0176: real time      0.0176

 eigenvalue-minimisations  :    96
 total energy-change (2. order) : 0.1378346E-02  (-0.4657470E-03)
 number of electron      12.0000001 magnetization 
 augmentation part       -0.1741201 magnetization 

 Broyden mixing:
  rms(total) = 0.91868E-02    rms(broyden)= 0.91865E-02
  rms(prec ) = 0.17111E-01
  weight for this iteration     100.00

 eigenvalues of (default mixing * dielectric matrix)
  average eigenvalue GAMMA=   1.4734
  2.2401  0.8046  1.5570  1.2919

 Free energy of the ion-electron system (eV)
  ---------------------------------------------------
  alpha Z        PSCENC =        -0.60288196
  Ewald energy   TEWEN  =      -235.98585236
  -Hartree energ DENC   =       -24.57110263
  -exchange      EXHF   =         0.00000000
  -V(xc)+E(xc)   XCENC  =      -105.83283646
  PAW double counting   =       759.34314686     -631.70944473
  entropy T*S    EENTRO =        -0.10043343
  eigenvalues    EBANDS =        14.03087546
  atomic energy  EATOM  =       214.14321246
  Solvation  Ediel_sol  =         0.00000000
  ---------------------------------------------------
  free energy    TOTEN  =       -11.28531679 eV

  energy without entropy =      -11.18488337  energy(sigma->0) =      -11.23510008


--------------------------------------------------------------------------------------------------------




--------------------------------------- Iteration      1(  17)  ---------------------------------------


    POTLOK:  cpu time      0.0035: real time      0.0035
    SETDIJ:  cpu time      0.0007: real time      0.0007
    EDDIAG:  cpu time      0.0037: real time      0.0037
  RMM-DIIS:  cpu time      0.0074: real time      0.0074
    ORTHCH:  cpu time      0.0003: real time      0.0003
       DOS:  cpu time      0.0001: real time      0.0001
    --------------------------------------------
      LOOP:  cpu time      0.0158: real time      0.0158

 eigenvalue-minimisations  :    96
 total energy-change (2. order) : 0.4850179E-04  (-0.6391534E-04)
 number of electron      12.0000001 magnetization 
 augmentation part       -0.1741201 magnetization 

 Free energy of the ion-electron system (eV)
  ---------------------------------------------------
  alpha Z        PSCENC =        -0.60288196
  Ewald energy   TEWEN  =      -235.98585236
  -Hartree energ DENC   =       -24.61890473
  -exchange      EXHF   =         0.00000000
  -V(xc)+E(xc)   XCENC  =      -105.82037805
  PAW double counting   =       762.83444902     -635.20343271
  entropy T*S    EENTRO =        -0.10027416
  eigenvalues    EBANDS =        14.06879420
  atomic energy  EATOM  =       214.14321246
  Solvation  Ediel_sol  =         0.00000000
  ---------------------------------------------------
  free energy    TOTEN  =       -11.28526829 eV

  energy without entropy =      -11.18499414  energy(sigma->0) =      -11.23513121


--------------------------------------------------------------------------------------------------------




 average (electrostatic) potential at core
  the test charge radii are     1.0406
  (the norm of the test charge is              1.0000)
       1 -74.8395       2 -76.2990       3 -75.1083       4 -75.5508



 E-fermi :   4.8980     XC(G=0):  -8.8808     alpha+bet :-11.0146

 Fermi energy:         4.8979543417

 k-point     1 :       0.2500    0.2500    0.2500
  band No.  band energies     occupation 
      1      -3.3974      2.00000
      2      -0.9917      2.00000
      3       1.6255      2.00000
      4       2.4864      2.00000
      5       2.6218      2.00000
      6       4.5216      1.98280
      7       5.1669      0.06505
      8       5.9744      0.00000
      9       7.5221      0.00000
     10       7.8192      0.00000
     11       8.5512      0.00000
     12      10.7747      0.00000

 k-point     2 :       0.2500   -0.2500    0.2500
  band No.  band energies     occupation 
      1      -3.3952      2.00000
      2      -0.9951      2.00000
      3       1.6238      2.00000
      4       2.5115      2.00000
      5       2.5972      2.00000
      6       4.5182      1.98352
      7       5.1025      0.14087
      8       6.1126      0.00000
      9       7.5306      0.00000
     10       7.7187      0.00000
     11       8.5035      0.00000
     12      10.5447      0.00000

 k-point     3 :       0.2500   -0.2500   -0.2500
  band No.  band energies     occupation 
      1      -3.3972      2.00000
      2      -0.9924      2.00000
      3       1.6093      2.00000
      4       2.4763      2.00000
      5       2.6502      2.00000
      6       4.7760      1.64638
      7       4.9770      0.53882
      8       5.7534      0.00004
      9       7.4501      0.00000
     10       8.1626      0.00000
     11       8.5398      0.00000
     12      10.8116      0.00000

 k-point     4 :       0.2500    0.2500   -0.2500
  band No.  band energies     occupation 
      1      -3.3955      2.00000
      2      -0.9911      2.00000
      3       1.5826      2.00000
      4       2.4896      2.00000
      5       2.6606      2.00000
      6       4.8310      1.39868
      7       5.0548      0.24305
      8       5.5181      0.00080
      9       7.6608      0.00000
     10       7.9626      0.00000
     11       8.7106      0.00000
     12      11.1227      0.00000


--------------------------------------------------------------------------------------------------------


 soft charge-density along one line, spin component           1
         0         1         2         3         4         5         6         7         8         9
 total charge-density along one line

 pseudopotential strength for first ion, spin component:           1
  8.547  14.570  -0.001  -0.000   0.000  -0.004  -0.002   0.001
 14.570  24.837  -0.002  -0.001   0.000  -0.007  -0.003   0.002
 -0.001  -0.002   1.997   0.000   0.000   5.771   0.001   0.000
 -0.000  -0.001   0.000   1.997   0.000   0.001   5.771   0.000
  0.000   0.000   0.000   0.000   1.997   0.000   0.000   5.770
 -0.004  -0.007   5.771   0.001   0.000  16.581   0.002   0.001
 -0.002  -0.003   0.001   5.771   0.000   0.002  16.582   0.001
  0.001   0.002   0.000   0.000   5.770   0.001   0.001  16.579
 total augmentation occupancy for first ion, spin component:           1
  5.017  -1.415   0.498   0.327  -0.076  -0.072  -0.048   0.008
 -1.415   0.457  -0.164  -0.121  -0.005   0.023   0.016  -0.001
  0.498  -0.164   1.524   0.053  -0.142  -0.138  -0.006   0.014
  0.327  -0.121   0.053   1.644   0.100  -0.006  -0.147  -0.011
 -0.076  -0.005  -0.142   0.100   1.321   0.014  -0.011  -0.108
 -0.072   0.023  -0.138  -0.006   0.014   0.013   0.001  -0.001
 -0.048   0.016  -0.006  -0.147  -0.011   0.001   0.014   0.001
  0.008  -0.001   0.014  -0.011  -0.108  -0.001   0.001   0.009


------------------------ aborting loop because EDIFF is reached ----------------------------------------


    CHARGE:  cpu time      0.0014: real time      0.0014
    FORLOC:  cpu time      0.0002: real time      0.0002
    FORNL :  cpu time      0.0022: real time      0.0022
    STRESS:  cpu time      0.0016: real time      0.0016
    FORCOR:  cpu time      0.0046: real time      0.0046
    FORHAR:  cpu time      0.0012: real time      0.0012
    MIXING:  cpu time      0.0003: real time      0.0003
    OFIELD:  cpu time      0.0000: real time      0.0000
 only isotrope contributions calculated for stress because ISIF=1 (only pressure is correct)

  FORCE on cell =-STRESS in cart. coord.  units (eV):
  Direction    XX          YY          ZZ          XY          YZ          ZX
  --------------------------------------------------------------------------------------
  Alpha Z    -0.60288    -0.60288    -0.60288
  Ewald    -103.90306   -70.94671   -61.13612    -5.21300    -1.07234     5.97442
  Hartree   -15.55990    18.69040    21.41126     0.02947    -0.05367     0.15093
  E(xc)     -33.92816   -33.50158   -33.60061     0.16669     0.06847    -0.16337
  Local      20.93457   -43.99538   -57.78437     5.31878     2.86655    -5.34733
  n-local    83.18252    83.18252    83.18252     0.00000     0.00000     0.00000
  augment    -4.62797    -4.62797    -4.62797     0.00000     0.00000     0.00000
  Kinetic    50.87701    56.53209    64.76681    -0.62882    -0.69449    -0.22710
  Fock        0.00000     0.00000     0.00000     0.00000     0.00000     0.00000
  -------------------------------------------------------------------------------------
  Total      -3.62787     4.73048    11.60863    -0.32688     1.11452     0.38755
  in kB     -65.20622    85.02428   208.65010    -5.87528    20.03196     6.96562
  external pressure =       76.16 kB  Pullay stress =        0.00 kB

  kinetic pressure (ideal gas correction) =     28.77 kB
  total pressure  =    104.93 kB
  Total+kin.   -46.997     128.754     233.035     -18.914      47.555       7.943

 VOLUME and BASIS-vectors are now :
 -----------------------------------------------------------------------------
  energy-cutoff  :      240.30
  volume of cell :       89.14
      direct lattice vectors                 reciprocal lattice vectors
     7.091057987  0.000000000  0.000000000     0.141022680  0.000000000  0.000000000
     0.000000000  3.545528993  0.000000000     0.000000000  0.282045360  0.000000000
     0.000000000  0.000000000  3.545528993     0.000000000  0.000000000  0.282045360

  length of vectors
     7.091057987  3.545528993  3.545528993     0.141022680  0.282045360  0.282045360


 FORCES acting on ions
    electron-ion (+dipol)            ewald-force                    non-local-force                 convergence-correction
 -----------------------------------------------------------------------------------------------
   0.701E+01 0.129E+02 0.802E+01   -.795E+01 -.975E+01 -.618E+01   0.157E+01 -.558E+01 -.344E+01   0.330E-03 0.655E-02 0.585E-02
   -.226E+02 0.648E+01 -.471E+01   0.211E+02 -.403E+01 0.411E+01   0.231E+01 -.282E+01 0.142E+01   -.180E-01 0.342E-02 -.212E-02
   -.249E+02 -.991E+01 -.372E+00   0.238E+02 0.779E+01 0.184E+00   0.168E+01 0.367E+01 0.522E+00   -.509E-01 -.461E-02 -.188E-02
   0.419E+02 -.792E+01 -.279E+01   -.369E+02 0.598E+01 0.189E+01   -.696E+01 0.320E+01 0.134E+01   0.508E-01 -.258E-02 -.532E-02
 -----------------------------------------------------------------------------------------------
   0.142E+01 0.153E+01 0.148E+00   0.000E+00 0.266E-14 0.222E-15   -.141E+01 -.153E+01 -.145E+00   -.177E-01 0.279E-02 -.347E-02


 POSITION                                       TOTAL-FORCE (eV/Angst)
 -----------------------------------------------------------------------------------
      0.06937      0.03249      0.46221         0.626222     -2.439828     -1.593120
      3.20802      0.67488      2.77974         0.797177     -0.366852      0.817056
      1.31401      1.65511      1.65925         0.503538      1.552959      0.333232
      6.04520      1.18305      2.18987        -1.926206      1.258489      0.443129
 -----------------------------------------------------------------------------------
    total drift:                                0.000731      0.004768      0.000297


--------------------------------------------------------------------------------------------------------



  FREE ENERGIE OF THE ION-ELECTRON SYSTEM (eV)
  ---------------------------------------------------
  free  energy   TOTEN  =       -11.28526829 eV

  energy  without entropy=      -11.18499414  energy(sigma->0) =      -11.23513121



--------------------------------------------------------------------------------------------------------


    POTLOK:  cpu time      0.0049: real time      0.0049


--------------------------------------------------------------------------------------------------------


           RANDOM_SEED =         692598503                0                0
           RANDOM_SEED =         692598503                0                0
   IONSTEP:  cpu time      0.0003: real time      0.0003

  ENERGY OF THE ELECTRON-ION-THERMOSTAT SYSTEM (eV)
  ---------------------------------------------------
% ion-electron   TOTEN  =       -11.285268  see above
  kinetic energy EKIN   =         2.451073
  kin. lattice  EKIN_LAT=         0.000000  (temperature 6320.74 K)
  nose potential ES     =        -0.463190
  nose kinetic   EPS    =         0.218478
  ---------------------------------------------------
  total energy   ETOTAL =        -9.078908 eV

  maximum distance moved by ions :      0.16E-01

    WAVPRE:  cpu time      0.0014: real time      0.0014
    FEWALD:  cpu time      0.0001: real time      0.0001
    ORTHCH:  cpu time      0.0008: real time      0.0008
     LOOP+:  cpu time      0.2507: real time      0.2507


--------------------------------------- Iteration      2(   1)  ---------------------------------------


    POTLOK:  cpu time      0.0035: real time      0.0035
    SETDIJ:  cpu time      0.0008: real time      0.0008
    EDDIAG:  cpu time      0.0044: real time      0.0044
  RMM-DIIS:  cpu time      0.0072: real time      0.0072
    ORTHCH:  cpu time      0.0003: real time      0.0003
       DOS:  cpu time      0.0001: real time      0.0001
    CHARGE:  cpu time      0.0012: real time      0.0012
    MIXING:  cpu time      0.0001: real time      0.0001
    --------------------------------------------
      LOOP:  cpu time      0.0178: real time      0.0178

 eigenvalue-minimisations  :    96
 total energy-change (2. order) :-0.1030258E-01  (-0.6804539E-01)
 number of electron      11.9999999 magnetization 
 augmentation part       -0.1752446 magnetization 

  free energy =  -0.112956193690E+02  energy without entropy=  -0.111978929708E+02


--------------------------------------------------------------------------------------------------------




--------------------------------------- Iteration      2(   2)  ---------------------------------------


    POTLOK:  cpu time      0.0040: real time      0.0040
    SETDIJ:  cpu time      0.0009: real time      0.0009
    EDDIAG:  cpu time      0.0036: real time      0.0036
  RMM-DIIS:  cpu time      0.0080: real time      0.0080
    ORTHCH:  cpu time      0.0008: real time      0.0008
       DOS:  cpu time      0.0001: real time      0.0001
    CHARGE:  cpu time      0.0019: real time      0.0019
    MIXING:  cpu time      0.0003: real time      0.0003
    --------------------------------------------
      LOOP:  cpu time      0.0195: real time      0.0195

 eigenvalue-minimisations  :    96
 total energy-change (2. order) : 0.2532787E-02  (-0.3508688E-02)
 number of electron      11.9999999 magnetization 
 augmentation part       -0.1751131 magnetization 

 eigenvalues of (default mixing * dielectric matrix)
  average eigenvalue GAMMA=   1.5257
  2.3017  2.3017  0.7884  1.1459  1.1459  1.4709

  free energy =  -0.112930865818E+02  energy without entropy=  -0.111940805637E+02


--------------------------------------------------------------------------------------------------------




--------------------------------------- Iteration      2(   3)  ---------------------------------------


    POTLOK:  cpu time      0.0041: real time      0.0041
    SETDIJ:  cpu time      0.0008: real time      0.0008
    EDDIAG:  cpu time      0.0039: real time      0.0039
  RMM-DIIS:  cpu time      0.0082: real time      0.0082
    ORTHCH:  cpu time      0.0004: real time      0.0004
       DOS:  cpu time      0.0001: real time      0.0001
    CHARGE:  cpu time      0.0013: real time      0.0013
    MIXING:  cpu time      0.0002: real time      0.0002
    --------------------------------------------
      LOOP:  cpu time      0.0191: real time      0.0191

 eigenvalue-minimisations  :    96
 total energy-change (2. order) : 0.4210444E-04  (-0.6360226E-03)
 number of electron      11.9999999 magnetization 
 augmentation part       -0.1748579 magnetization 

 eigenvalues of (default mixing * dielectric matrix)
  average eigenvalue GAMMA=   1.5061
  2.2991  2.2991  0.7896  1.1355  1.1355  1.4420  1.4420

  free energy =  -0.112930444773E+02  energy without entropy=  -0.111942455984E+02


--------------------------------------------------------------------------------------------------------




--------------------------------------- Iteration      2(   4)  ---------------------------------------


    POTLOK:  cpu time      0.0036: real time      0.0036
    SETDIJ:  cpu time      0.0006: real time      0.0006
    EDDIAG:  cpu time      0.0037: real time      0.0037
  RMM-DIIS:  cpu time      0.0075: real time      0.0075
    ORTHCH:  cpu time      0.0003: real time      0.0003
       DOS:  cpu time      0.0001: real time      0.0001
    --------------------------------------------
      LOOP:  cpu time      0.0158: real time      0.0158

 eigenvalue-minimisations  :    96
 total energy-change (2. order) :-0.8904211E-04  (-0.9419316E-04)
 number of electron      11.9999999 magnetization 
 augmentation part       -0.1748579 magnetization 

  free energy =  -0.112931335194E+02  energy without entropy=  -0.111944549306E+02


--------------------------------------------------------------------------------------------------------




------------------------ aborting loop because EDIFF is reached ----------------------------------------


    CHARGE:  cpu time      0.0015: real time      0.0015
    FORLOC:  cpu time      0.0002: real time      0.0002
    FORNL :  cpu time      0.0026: real time      0.0026
    STRESS:  cpu time      0.0020: real time      0.0020
    FORCOR:  cpu time      0.0050: real time      0.0050
    FORHAR:  cpu time      0.0014: real time      0.0014
    MIXING:  cpu time      0.0003: real time      0.0003
    OFIELD:  cpu time      0.0000: real time      0.0000
 only isotrope contributions calculated for stress because ISIF=1 (only pressure is correct)

  FORCE on cell =-STRESS in cart. coord.  units (eV):
  Direction    XX          YY          ZZ          XY          YZ          ZX
  --------------------------------------------------------------------------------------
  Alpha Z    -0.60288    -0.60288    -0.60288
  Ewald    -104.21103   -69.97775   -61.79195    -5.24197    -0.62986     4.36329
  Hartree   -15.71188    19.05285    21.33436     0.02168    -0.06349     0.10467
  E(xc)     -33.92487   -33.52104   -33.59714     0.16520     0.05087    -0.12039
  Local      21.12932   -45.40172   -56.80238     5.27012     2.57475    -4.01914
  n-local    83.28352    83.28352    83.28352     0.00000     0.00000     0.00000
  augment    -4.64168    -4.64168    -4.64168     0.00000     0.00000     0.00000
  Kinetic    51.28622    56.44214    64.49268    -0.66160    -0.65409    -0.28918
  Fock        0.00000     0.00000     0.00000     0.00000     0.00000     0.00000
  -------------------------------------------------------------------------------------
  Total      -3.39327     4.63344    11.67454    -0.44657     1.27817     0.03925
  in kB     -60.98970    83.28001   209.83459    -8.02653    22.97337     0.70551
  external pressure =       77.37 kB  Pullay stress =        0.00 kB

  kinetic pressure (ideal gas correction) =     30.05 kB
  total pressure  =    107.43 kB
  Total+kin.   -41.257     129.402     234.134     -21.369      50.365       3.267


--------------------------------------------------------------------------------------------------------



  FREE ENERGIE OF THE ION-ELECTRON SYSTEM (eV)
  ---------------------------------------------------
  free  energy   TOTEN  =       -11.29313352 eV

  energy  without entropy=      -11.19445493  energy(sigma->0) =      -11.24379423

 d Force = 0.7299678E-02[-0.156E-01, 0.302E-01]  d Energy = 0.7865227E-02-0.566E-03
 d Force =-0.5186780E-02[-0.643E-01, 0.540E-01]  d Ewald  =-0.5159126E-02-0.277E-04


--------------------------------------------------------------------------------------------------------


    POTLOK:  cpu time      0.0059: real time      0.0059


--------------------------------------------------------------------------------------------------------


           RANDOM_SEED =         692598503                0                0
   IONSTEP:  cpu time      0.0001: real time      0.0001

  ENERGY OF THE ELECTRON-ION-THERMOSTAT SYSTEM (eV)
  ---------------------------------------------------
% ion-electron   TOTEN  =       -11.293134  see above
  kinetic energy EKIN   =         2.541817
  kin. lattice  EKIN_LAT=         0.000000  (temperature 6554.75 K)
  nose potential ES     =        -0.475089
  nose kinetic   EPS    =         0.147088
  ---------------------------------------------------
  total energy   ETOTAL =        -9.079318 eV

  maximum distance moved by ions :      0.15E-01

 Prediction of Wavefunctions ALPHA= 1.009 BETA= 0.000
    WAVPRE:  cpu time      0.0031: real time      0.0031
    FEWALD:  cpu time      0.0001: real time      0.0001
    ORTHCH:  cpu time      0.0008: real time      0.0008
     LOOP+:  cpu time      0.0964: real time      0.0964


--------------------------------------- Iteration      3(   1)  ---------------------------------------


    POTLOK:  cpu time      0.0045: real time      0.0045
    SETDIJ:  cpu time      0.0008: real time      0.0008
    EDDIAG:  cpu time      0.0035: real time      0.0035
  RMM-DIIS:  cpu time      0.0069: real time      0.0069
    ORTHCH:  cpu time      0.0003: real time      0.0003
       DOS:  cpu time      0.0001: real time      0.0001
    CHARGE:  cpu time      0.0013: real time      0.0013
    MIXING:  cpu time      0.0002: real time      0.0002
    --------------------------------------------
      LOOP:  cpu time      0.0175: real time      0.0175

 eigenvalue-minimisations  :    96
 total energy-change (2. order) : 0.7509410E-02  (-0.2569164E-02)
 number of electron      11.9999999 magnetization 
 augmentation part       -0.1746604 magnetization 

  free energy =  -0.112855350677E+02  energy without entropy=  -0.111895899850E+02


--------------------------------------------------------------------------------------------------------




--------------------------------------- Iteration      3(   2)  ---------------------------------------


    POTLOK:  cpu time      0.0039: real time      0.0039
    SETDIJ:  cpu time      0.0009: real time      0.0009
    EDDIAG:  cpu time      0.0040: real time      0.0040
  RMM-DIIS:  cpu time      0.0075: real time      0.0075
    ORTHCH:  cpu time      0.0005: real time      0.0005
       DOS:  cpu time      0.0001: real time      0.0001
    CHARGE:  cpu time      0.0016: real time      0.0016
    MIXING:  cpu time      0.0002: real time      0.0002
    --------------------------------------------
      LOOP:  cpu time      0.0189: real time      0.0189

 eigenvalue-minimisations  :    96
 total energy-change (2. order) :-0.2607218E-04  (-0.1661173E-03)
 number of electron      11.9999999 magnetization 
 augmentation part       -0.1749137 magnetization 

 eigenvalues of (default mixing * dielectric matrix)
  average eigenvalue GAMMA=   1.6442
  2.3893  2.3893  2.5447  2.1345  1.4390  1.0976  1.0976  0.7852  0.9205

  free energy =  -0.112855611399E+02  energy without entropy=  -0.111898257270E+02


--------------------------------------------------------------------------------------------------------




--------------------------------------- Iteration      3(   3)  ---------------------------------------


    POTLOK:  cpu time      0.0044: real time      0.0044
    SETDIJ:  cpu time      0.0009: real time      0.0009
    EDDIAG:  cpu time      0.0045: real time      0.0045
  RMM-DIIS:  cpu time      0.0077: real time      0.0077
    ORTHCH:  cpu time      0.0004: real time      0.0004
       DOS:  cpu time      0.0001: real time      0.0001
    --------------------------------------------
      LOOP:  cpu time      0.0179: real time      0.0179

 eigenvalue-minimisations  :    94
 total energy-change (2. order) :-0.3752676E-04  (-0.3109610E-04)
 number of electron      11.9999999 magnetization 
 augmentation part       -0.1749137 magnetization 

  free energy =  -0.112855986666E+02  energy without entropy=  -0.111899250833E+02


--------------------------------------------------------------------------------------------------------




------------------------ aborting loop because EDIFF is reached ----------------------------------------


    CHARGE:  cpu time      0.0015: real time      0.0015
    FORLOC:  cpu time      0.0002: real time      0.0002
    FORNL :  cpu time      0.0023: real time      0.0023
    STRESS:  cpu time      0.0018: real time      0.0018
    FORCOR:  cpu time      0.0038: real time      0.0038
    FORHAR:  cpu time      0.0011: real time      0.0011
    MIXING:  cpu time      0.0003: real time      0.0003
    OFIELD:  cpu time      0.0000: real time      0.0000
 only isotrope contributions calculated for stress because ISIF=1 (only pressure is correct)

  FORCE on cell =-STRESS in cart. coord.  units (eV):
  Direction    XX          YY          ZZ          XY          YZ          ZX
  --------------------------------------------------------------------------------------
  Alpha Z    -0.60288    -0.60288    -0.60288
  Ewald    -104.49105   -69.01472   -62.58890    -5.46013    -0.35627     2.87127
  Hartree   -15.71309    19.25977    21.04946    -0.00023    -0.07170     0.05493
  E(xc)     -33.92353   -33.54462   -33.59641     0.16653     0.03980    -0.08256
  Local      21.14815   -46.64099   -55.44799     5.32885     2.38474    -2.74969
  n-local    83.38526    83.38526    83.38526     0.00000     0.00000     0.00000
  augment    -4.64720    -4.64720    -4.64720     0.00000     0.00000     0.00000
  Kinetic    51.62516    56.35870    64.18591    -0.69439    -0.59684    -0.33655
  Fock        0.00000     0.00000     0.00000     0.00000     0.00000     0.00000
  -------------------------------------------------------------------------------------
  Total      -3.21918     4.55331    11.73725    -0.65937     1.39973    -0.24259
  in kB     -57.86054    81.83989   210.96172   -11.85127    25.15835    -4.36025
  external pressure =       78.31 kB  Pullay stress =        0.00 kB

  kinetic pressure (ideal gas correction) =     30.95 kB
  total pressure  =    109.27 kB
  Total+kin.   -36.863     130.077     234.587     -24.841      52.453      -0.360


--------------------------------------------------------------------------------------------------------



  FREE ENERGIE OF THE ION-ELECTRON SYSTEM (eV)
  ---------------------------------------------------
  free  energy   TOTEN  =       -11.28559867 eV

  energy  without entropy=      -11.18992508  energy(sigma->0) =      -11.23776187

 d Force =-0.8023658E-02[-0.294E-01, 0.134E-01]  d Energy =-0.7534853E-02-0.489E-03
 d Force = 0.1137585E+00[ 0.540E-01, 0.174E+00]  d Ewald  = 0.1139274E+00-0.169E-03


--------------------------------------------------------------------------------------------------------


    POTLOK:  cpu time      0.0052: real time      0.0052


--------------------------------------------------------------------------------------------------------


           RANDOM_SEED =         692598503                0                0
   IONSTEP:  cpu time      0.0000: real time      0.0000

  ENERGY OF THE ELECTRON-ION-THERMOSTAT SYSTEM (eV)
  ---------------------------------------------------
% ion-electron   TOTEN  =       -11.285599  see above
  kinetic energy EKIN   =         2.602755
  kin. lattice  EKIN_LAT=         0.000000  (temperature 6711.90 K)
  nose potential ES     =        -0.484597
  nose kinetic   EPS    =         0.087996
  ---------------------------------------------------
  total energy   ETOTAL =        -9.079444 eV

  maximum distance moved by ions :      0.15E-01

 Prediction of Wavefunctions ALPHA= 2.026 BETA=-1.038
    WAVPRE:  cpu time      0.0031: real time      0.0031
    FEWALD:  cpu time      0.0001: real time      0.0001
    ORTHCH:  cpu time      0.0010: real time      0.0010
     LOOP+:  cpu time      0.0755: real time      0.0755


--------------------------------------- Iteration      4(   1)  ---------------------------------------


    POTLOK:  cpu time      0.0048: real time      0.0048
    SETDIJ:  cpu time      0.0007: real time      0.0007
    EDDIAG:  cpu time      0.0037: real time      0.0037
  RMM-DIIS:  cpu time      0.0066: real time      0.0066
    ORTHCH:  cpu time      0.0004: real time      0.0004
       DOS:  cpu time      0.0002: real time      0.0002
    CHARGE:  cpu time      0.0015: real time      0.0015
    MIXING:  cpu time      0.0003: real time      0.0003
    --------------------------------------------
      LOOP:  cpu time      0.0180: real time      0.0180

 eigenvalue-minimisations  :    96
 total energy-change (2. order) : 0.1761452E-01  (-0.5391045E-03)
 number of electron      12.0000001 magnetization 
 augmentation part       -0.1750306 magnetization 

  free energy =  -0.112679466183E+02  energy without entropy=  -0.111771566944E+02


--------------------------------------------------------------------------------------------------------




--------------------------------------- Iteration      4(   2)  ---------------------------------------


    POTLOK:  cpu time      0.0037: real time      0.0037
    SETDIJ:  cpu time      0.0007: real time      0.0007
    EDDIAG:  cpu time      0.0037: real time      0.0037
  RMM-DIIS:  cpu time      0.0066: real time      0.0066
    ORTHCH:  cpu time      0.0004: real time      0.0004
       DOS:  cpu time      0.0001: real time      0.0001
    --------------------------------------------
      LOOP:  cpu time      0.0152: real time      0.0152

 eigenvalue-minimisations  :    96
 total energy-change (2. order) :-0.1485306E-04  (-0.8840865E-04)
 number of electron      12.0000001 magnetization 
 augmentation part       -0.1750306 magnetization 

  free energy =  -0.112679614714E+02  energy without entropy=  -0.111774319575E+02


--------------------------------------------------------------------------------------------------------




------------------------ aborting loop because EDIFF is reached ----------------------------------------


    CHARGE:  cpu time      0.0021: real time      0.0021
    FORLOC:  cpu time      0.0002: real time      0.0002
    FORNL :  cpu time      0.0024: real time      0.0024
    STRESS:  cpu time      0.0021: real time      0.0021
    FORCOR:  cpu time      0.0053: real time      0.0053
    FORHAR:  cpu time      0.0014: real time      0.0014
    MIXING:  cpu time      0.0007: real time      0.0007
    OFIELD:  cpu time      0.0000: real time      0.0000
 only isotrope contributions calculated for stress because ISIF=1 (only pressure is correct)

  FORCE on cell =-STRESS in cart. coord.  units (eV):
  Direction    XX          YY          ZZ          XY          YZ          ZX
  --------------------------------------------------------------------------------------
  Alpha Z    -0.60288    -0.60288    -0.60288
  Ewald    -104.68367   -68.22098   -63.43865    -5.88455    -0.28882     1.55541
  Hartree   -15.69541    19.42196    20.73640    -0.03731    -0.07669     0.00582
  E(xc)     -33.92011   -33.56239   -33.59413     0.17249     0.03582    -0.04971
  Local      21.10448   -47.66124   -54.05773     5.54290     2.29917    -1.58665
  n-local    83.50775    83.50775    83.50775     0.00000     0.00000     0.00000
  augment    -4.65517    -4.65517    -4.65517     0.00000     0.00000     0.00000
  Kinetic    51.91764    56.29651    63.86675    -0.71971    -0.51730    -0.36733
  Fock        0.00000     0.00000     0.00000     0.00000     0.00000     0.00000
  -------------------------------------------------------------------------------------
  Total      -3.02736     4.52356    11.76234    -0.92618     1.45219    -0.44246
  in kB     -54.41293    81.30510   211.41275   -16.64685    26.10129    -7.95258
  external pressure =       79.43 kB  Pullay stress =        0.00 kB

  kinetic pressure (ideal gas correction) =     31.52 kB
  total pressure  =    110.96 kB
  Total+kin.   -32.208     131.078     233.996     -28.686      53.441      -2.813


--------------------------------------------------------------------------------------------------------



  FREE ENERGIE OF THE ION-ELECTRON SYSTEM (eV)
  ---------------------------------------------------
  free  energy   TOTEN  =       -11.26796147 eV

  energy  without entropy=      -11.17743196  energy(sigma->0) =      -11.22269671

 d Force =-0.1744142E-01[-0.380E-01, 0.313E-02]  d Energy =-0.1763720E-01 0.196E-03
 d Force = 0.2483188E+00[ 0.188E+00, 0.309E+00]  d Ewald  = 0.2486457E+00-0.327E-03


--------------------------------------------------------------------------------------------------------


    POTLOK:  cpu time      0.0059: real time      0.0059


--------------------------------------------------------------------------------------------------------


           RANDOM_SEED =         692598503                0                0
   IONSTEP:  cpu time      0.0000: real time      0.0000

  ENERGY OF THE ELECTRON-ION-THERMOSTAT SYSTEM (eV)
  ---------------------------------------------------
% ion-electron   TOTEN  =       -11.267961  see above
  kinetic energy EKIN   =         2.637583
  kin. lattice  EKIN_LAT=         0.000000  (temperature 6801.71 K)
  nose potential ES     =        -0.491646
  nose kinetic   EPS    =         0.043215
  ---------------------------------------------------
  total energy   ETOTAL =        -9.078809 eV

  maximum distance moved by ions :      0.16E-01

 Prediction of Wavefunctions ALPHA= 2.028 BETA=-1.041
    WAVPRE:  cpu time      0.0021: real time      0.0021
    FEWALD:  cpu time      0.0001: real time      0.0001
    ORTHCH:  cpu time      0.0007: real time      0.0007
     LOOP+:  cpu time      0.0572: real time      0.0572


--------------------------------------- Iteration      5(   1)  ---------------------------------------


    POTLOK:  cpu time      0.0044: real time      0.0044
    SETDIJ:  cpu time      0.0009: real time      0.0009
    EDDIAG:  cpu time      0.0028: real time      0.0028
  RMM-DIIS:  cpu time      0.0068: real time      0.0068
    ORTHCH:  cpu time      0.0003: real time      0.0003
       DOS:  cpu time      0.0001: real time      0.0001
    CHARGE:  cpu time      0.0014: real time      0.0014
    MIXING:  cpu time      0.0002: real time      0.0002
    --------------------------------------------
      LOOP:  cpu time      0.0169: real time      0.0169

 eigenvalue-minimisations  :    96
 total energy-change (2. order) : 0.2208722E-01  (-0.5017709E-03)
 number of electron      11.9999999 magnetization 
 augmentation part       -0.1760645 magnetization 

  free energy =  -0.112458594020E+02  energy without entropy=  -0.111626483651E+02


--------------------------------------------------------------------------------------------------------




--------------------------------------- Iteration      5(   2)  ---------------------------------------


    POTLOK:  cpu time      0.0047: real time      0.0047
    SETDIJ:  cpu time      0.0008: real time      0.0008
    EDDIAG:  cpu time      0.0039: real time      0.0039
  RMM-DIIS:  cpu time      0.0067: real time      0.0067
    ORTHCH:  cpu time      0.0004: real time      0.0004
       DOS:  cpu time      0.0001: real time      0.0001
    --------------------------------------------
      LOOP:  cpu time      0.0165: real time      0.0165

 eigenvalue-minimisations  :    96
 total energy-change (2. order) :-0.6565471E-04  (-0.5871911E-04)
 number of electron      11.9999999 magnetization 
 augmentation part       -0.1760645 magnetization 

  free energy =  -0.112459250567E+02  energy without entropy=  -0.111627360624E+02


--------------------------------------------------------------------------------------------------------




------------------------ aborting loop because EDIFF is reached ----------------------------------------


    CHARGE:  cpu time      0.0019: real time      0.0019
    FORLOC:  cpu time      0.0003: real time      0.0003
    FORNL :  cpu time      0.0026: real time      0.0026
    STRESS:  cpu time      0.0020: real time      0.0020
    FORCOR:  cpu time      0.0044: real time      0.0044
    FORHAR:  cpu time      0.0011: real time      0.0011
    MIXING:  cpu time      0.0005: real time      0.0005
    OFIELD:  cpu time      0.0000: real time      0.0000
 only isotrope contributions calculated for stress because ISIF=1 (only pressure is correct)

  FORCE on cell =-STRESS in cart. coord.  units (eV):
  Direction    XX          YY          ZZ          XY          YZ          ZX
  --------------------------------------------------------------------------------------
  Alpha Z    -0.60288    -0.60288    -0.60288
  Ewald    -104.73574   -67.76740   -64.23232    -6.49410    -0.43656     0.44961
  Hartree   -15.55875    19.42625    20.31071    -0.09104    -0.07819    -0.04470
  E(xc)     -33.90813   -33.57308   -33.58928     0.18151     0.03938    -0.02167
  Local      20.85483   -48.18956   -52.62319     5.91484     2.32401    -0.52749
  n-local    83.63930    83.63930    83.63930     0.00000     0.00000     0.00000
  augment    -4.67822    -4.67822    -4.67822     0.00000     0.00000     0.00000
  Kinetic    52.11563    56.24872    63.53984    -0.73813    -0.43758    -0.38487
  Fock        0.00000     0.00000     0.00000     0.00000     0.00000     0.00000
  -------------------------------------------------------------------------------------
  Total      -2.87396     4.50311    11.76396    -1.22691     1.41106    -0.52912
  in kB     -51.65575    80.93758   211.44186   -22.05211    25.36200    -9.51019
  external pressure =       80.24 kB  Pullay stress =        0.00 kB

  kinetic pressure (ideal gas correction) =     31.80 kB
  total pressure  =    112.04 kB
  Total+kin.   -28.165     131.320     232.964     -32.641      52.954      -3.699


--------------------------------------------------------------------------------------------------------



  FREE ENERGIE OF THE ION-ELECTRON SYSTEM (eV)
  ---------------------------------------------------
  free  energy   TOTEN  =       -11.24592506 eV

  energy  without entropy=      -11.16273606  energy(sigma->0) =      -11.20433056

 d Force =-0.2163904E-01[-0.417E-01,-0.155E-02]  d Energy =-0.2203641E-01 0.397E-03
 d Force = 0.3917057E+00[ 0.330E+00, 0.454E+00]  d Ewald  = 0.3921575E+00-0.452E-03


--------------------------------------------------------------------------------------------------------


    POTLOK:  cpu time      0.0054: real time      0.0054


--------------------------------------------------------------------------------------------------------


           RANDOM_SEED =         692598503                0                0
[...]
--------------------------------------------------------------------------------------------------------


           RANDOM_SEED =         692598503                0                0
   IONSTEP:  cpu time      0.0000: real time      0.0000

  ENERGY OF THE ELECTRON-ION-THERMOSTAT SYSTEM (eV)
  ---------------------------------------------------
% ion-electron   TOTEN  =       -12.479337  see above
  kinetic energy EKIN   =         0.029081
  kin. lattice  EKIN_LAT=         0.000000  (temperature   74.99 K)
  nose potential ES     =         2.414391
  nose kinetic   EPS    =         0.961264
  ---------------------------------------------------
  total energy   ETOTAL =        -9.074601 eV

  maximum distance moved by ions :      0.16E-02

 Prediction of Wavefunctions ALPHA= 2.009 BETA=-1.012
    WAVPRE:  cpu time      0.0023: real time      0.0023
    FEWALD:  cpu time      0.0001: real time      0.0001
    ORTHCH:  cpu time      0.0008: real time      0.0008
     LOOP+:  cpu time      0.0525: real time      0.0528


--------------------------------------- Iteration     99(   1)  ---------------------------------------


    POTLOK:  cpu time      0.0036: real time      0.0037
    SETDIJ:  cpu time      0.0006: real time      0.0006
    EDDIAG:  cpu time      0.0035: real time      0.0035
  RMM-DIIS:  cpu time      0.0051: real time      0.0051
    ORTHCH:  cpu time      0.0003: real time      0.0003
       DOS:  cpu time      0.0002: real time      0.0002
    CHARGE:  cpu time      0.0014: real time      0.0014
    MIXING:  cpu time      0.0006: real time      0.0006
    --------------------------------------------
      LOOP:  cpu time      0.0152: real time      0.0153

 eigenvalue-minimisations  :    61
 total energy-change (2. order) : 0.8590119E-03  (-0.6501761E-05)
 number of electron      11.9999998 magnetization 
 augmentation part       -0.1790038 magnetization 

  free energy =  -0.124784773047E+02  energy without entropy=  -0.123892244527E+02


--------------------------------------------------------------------------------------------------------




--------------------------------------- Iteration     99(   2)  ---------------------------------------


    POTLOK:  cpu time      0.0046: real time      0.0047
    SETDIJ:  cpu time      0.0006: real time      0.0006
    EDDIAG:  cpu time      0.0032: real time      0.0032
  RMM-DIIS:  cpu time      0.0052: real time      0.0053
    ORTHCH:  cpu time      0.0003: real time      0.0003
       DOS:  cpu time      0.0001: real time      0.0001
    --------------------------------------------
      LOOP:  cpu time      0.0141: real time      0.0142

 eigenvalue-minimisations  :    46
 total energy-change (2. order) :-0.7732712E-06  (-0.6975948E-06)
 number of electron      11.9999998 magnetization 
 augmentation part       -0.1790038 magnetization 

  free energy =  -0.124784780780E+02  energy without entropy=  -0.123892399656E+02


--------------------------------------------------------------------------------------------------------




------------------------ aborting loop because EDIFF is reached ----------------------------------------


    CHARGE:  cpu time      0.0014: real time      0.0014
    FORLOC:  cpu time      0.0002: real time      0.0002
    FORNL :  cpu time      0.0023: real time      0.0023
    STRESS:  cpu time      0.0015: real time      0.0015
    FORCOR:  cpu time      0.0041: real time      0.0041
    FORHAR:  cpu time      0.0012: real time      0.0012
    MIXING:  cpu time      0.0035: real time      0.0036
    OFIELD:  cpu time      0.0000: real time      0.0000
 only isotrope contributions calculated for stress because ISIF=1 (only pressure is correct)

  FORCE on cell =-STRESS in cart. coord.  units (eV):
  Direction    XX          YY          ZZ          XY          YZ          ZX
  --------------------------------------------------------------------------------------
  Alpha Z    -0.60288    -0.60288    -0.60288
  Ewald     -94.08405   -88.88882   -66.32752    -0.87220     0.00903     0.07721
  Hartree    -8.36274     9.17204    13.83164    -0.07142     0.00079     0.01054
  E(xc)     -32.93204   -32.69943   -32.75511     0.01242    -0.00030    -0.00274
  Local       6.75911   -14.94697   -44.62852     0.92531    -0.01594    -0.14318
  n-local    79.04685    79.04685    79.04685     0.00000     0.00000     0.00000
  augment    -4.77137    -4.77137    -4.77137     0.00000     0.00000     0.00000
  Kinetic    44.24651    52.98324    67.22762    -0.00775     0.00155     0.00837
  Fock        0.00000     0.00000     0.00000     0.00000     0.00000     0.00000
  -------------------------------------------------------------------------------------
  Total     -10.70060    -0.70735    11.02072    -0.01364    -0.00488    -0.04981
  in kB    -192.32935   -12.71363   198.08316    -0.24525    -0.08765    -0.89524
  external pressure =       -2.32 kB  Pullay stress =        0.00 kB

  kinetic pressure (ideal gas correction) =      0.33 kB
  total pressure  =     -1.99 kB
  Total+kin.  -191.945     -12.209     198.188       0.048      -0.125      -1.037


--------------------------------------------------------------------------------------------------------



  FREE ENERGIE OF THE ION-ELECTRON SYSTEM (eV)
  ---------------------------------------------------
  free  energy   TOTEN  =       -12.47847808 eV

  energy  without entropy=      -12.38923997  energy(sigma->0) =      -12.43385902

 d Force =-0.8609271E-03[-0.112E-02,-0.601E-03]  d Energy =-0.8588626E-03-0.206E-05
 d Force =-0.1896385E+00[-0.191E+00,-0.188E+00]  d Ewald  =-0.1896376E+00-0.830E-06


--------------------------------------------------------------------------------------------------------


    POTLOK:  cpu time      0.0048: real time      0.0048


--------------------------------------------------------------------------------------------------------


           RANDOM_SEED =         692598503                0                0
   IONSTEP:  cpu time      0.0001: real time      0.0001

  ENERGY OF THE ELECTRON-ION-THERMOSTAT SYSTEM (eV)
  ---------------------------------------------------
% ion-electron   TOTEN  =       -12.478478  see above
  kinetic energy EKIN   =         0.026118
  kin. lattice  EKIN_LAT=         0.000000  (temperature   67.35 K)
  nose potential ES     =         2.441620
  nose kinetic   EPS    =         0.936131
  ---------------------------------------------------
  total energy   ETOTAL =        -9.074609 eV

  maximum distance moved by ions :      0.16E-02

 Prediction of Wavefunctions ALPHA= 2.013 BETA=-1.016
    WAVPRE:  cpu time      0.0026: real time      0.0027
    FEWALD:  cpu time      0.0001: real time      0.0001
    ORTHCH:  cpu time      0.0008: real time      0.0008
     LOOP+:  cpu time      0.0528: real time      0.0532


--------------------------------------- Iteration    100(   1)  ---------------------------------------


    POTLOK:  cpu time      0.0037: real time      0.0037
    SETDIJ:  cpu time      0.0008: real time      0.0008
    EDDIAG:  cpu time      0.0040: real time      0.0041
  RMM-DIIS:  cpu time      0.0053: real time      0.0053
    ORTHCH:  cpu time      0.0004: real time      0.0005
       DOS:  cpu time      0.0001: real time      0.0001
    CHARGE:  cpu time      0.0013: real time      0.0013
    MIXING:  cpu time      0.0004: real time      0.0004
    --------------------------------------------
      LOOP:  cpu time      0.0160: real time      0.0161

 eigenvalue-minimisations  :    58
 total energy-change (2. order) : 0.1091624E-02  (-0.4098317E-05)
 number of electron      11.9999998 magnetization 
 augmentation part       -0.1790219 magnetization 

  free energy =  -0.124773856809E+02  energy without entropy=  -0.123882395571E+02


--------------------------------------------------------------------------------------------------------




--------------------------------------- Iteration    100(   2)  ---------------------------------------


    POTLOK:  cpu time      0.0037: real time      0.0037
    SETDIJ:  cpu time      0.0006: real time      0.0006
    EDDIAG:  cpu time      0.0035: real time      0.0036
  RMM-DIIS:  cpu time      0.0044: real time      0.0044
    ORTHCH:  cpu time      0.0003: real time      0.0003
       DOS:  cpu time      0.0001: real time      0.0001
    --------------------------------------------
      LOOP:  cpu time      0.0126: real time      0.0127

 eigenvalue-minimisations  :    35
 total energy-change (2. order) :-0.1067588E-07  (-0.2163191E-06)
 number of electron      11.9999998 magnetization 
 augmentation part       -0.1790219 magnetization 

  free energy =  -0.124773856916E+02  energy without entropy=  -0.123882256918E+02


--------------------------------------------------------------------------------------------------------




 average (electrostatic) potential at core
  the test charge radii are     1.0406
  (the norm of the test charge is              1.0000)
       1 -75.4827       2 -75.2051       3 -75.2536       4 -76.0218



 E-fermi :   4.9195     XC(G=0):  -8.9746     alpha+bet :-11.0146

 Fermi energy:         4.9194593986

 k-point     1 :       0.2500    0.2500    0.2500
  band No.  band energies     occupation 
      1      -2.9965      2.00000
      2      -0.8834      2.00000
      3       1.7055      2.00000
      4       2.7039      2.00000
      5       2.9301      2.00000
      6       4.7264      1.83896
      7       5.1349      0.12394
      8       6.0288      0.00000
      9       7.3338      0.00000
     10       8.0481      0.00000
     11       8.4814      0.00000
     12      10.6455      0.00000

 k-point     2 :       0.2500   -0.2500    0.2500
  band No.  band energies     occupation 
      1      -2.9958      2.00000
      2      -0.8888      2.00000
      3       1.7304      2.00000
      4       2.7065      2.00000
      5       2.9086      2.00000
      6       4.7232      1.84489
      7       5.0923      0.20309
      8       6.0643      0.00000
      9       7.3720      0.00000
     10       8.0562      0.00000
     11       8.4591      0.00000
     12      10.4788      0.00000

 k-point     3 :       0.2500   -0.2500   -0.2500
  band No.  band energies     occupation 
      1      -2.9958      2.00000
      2      -0.8882      2.00000
      3       1.7278      2.00000
      4       2.7048      2.00000
      5       2.9123      2.00000
      6       4.7281      1.83578
      7       5.0924      0.20282
      8       6.0584      0.00000
      9       7.3681      0.00000
     10       8.0565      0.00000
     11       8.4627      0.00000
     12      11.3987      0.00000

 k-point     4 :       0.2500    0.2500   -0.2500
  band No.  band energies     occupation 
      1      -2.9966      2.00000
      2      -0.8828      2.00000
      3       1.7032      2.00000
      4       2.7027      2.00000
      5       2.9329      2.00000
      6       4.7321      1.82798
      7       5.1358      0.12253
      8       6.0202      0.00000
      9       7.3312      0.00000
     10       8.0498      0.00000
     11       8.4829      0.00000
     12      11.4183      0.00000


--------------------------------------------------------------------------------------------------------


 soft charge-density along one line, spin component           1
         0         1         2         3         4         5         6         7         8         9
 total charge-density along one line

 pseudopotential strength for first ion, spin component:           1
  8.543  14.565  -0.000   0.000  -0.003  -0.000   0.000  -0.010
 14.565  24.831  -0.000   0.000  -0.006  -0.000   0.000  -0.017
 -0.000  -0.000   1.985  -0.000   0.000   5.743  -0.000   0.000
  0.000   0.000  -0.000   1.985   0.000  -0.000   5.741   0.000
 -0.003  -0.006   0.000   0.000   1.984   0.000   0.000   5.740
 -0.000  -0.000   5.743  -0.000   0.000  16.516  -0.000  -0.000
  0.000   0.000  -0.000   5.741   0.000  -0.000  16.513   0.000
 -0.010  -0.017   0.000   0.000   5.740  -0.000   0.000  16.509
 total augmentation occupancy for first ion, spin component:           1
  3.781  -0.916   0.016   0.003   0.293  -0.003  -0.000  -0.047
 -0.916   0.284  -0.008  -0.001  -0.123   0.001   0.000   0.016
  0.016  -0.008   0.840   0.000   0.009  -0.066  -0.000  -0.001
  0.003  -0.001   0.000   1.217  -0.009  -0.000  -0.091   0.001
  0.293  -0.123   0.009  -0.009   1.213  -0.001   0.001  -0.103
 -0.003   0.001  -0.066  -0.000  -0.001   0.005   0.000   0.000
 -0.000   0.000  -0.000  -0.091   0.001   0.000   0.007  -0.000
 -0.047   0.016  -0.001   0.001  -0.103   0.000  -0.000   0.009


------------------------ aborting loop because EDIFF is reached ----------------------------------------


    CHARGE:  cpu time      0.0019: real time      0.0019
    FORLOC:  cpu time      0.0002: real time      0.0002
    FORNL :  cpu time      0.0022: real time      0.0022
    STRESS:  cpu time      0.0015: real time      0.0015
    FORCOR:  cpu time      0.0046: real time      0.0046
    FORHAR:  cpu time      0.0016: real time      0.0016
    MIXING:  cpu time      0.0034: real time      0.0034
    OFIELD:  cpu time      0.0000: real time      0.0000
 only isotrope contributions calculated for stress because ISIF=1 (only pressure is correct)

  FORCE on cell =-STRESS in cart. coord.  units (eV):
  Direction    XX          YY          ZZ          XY          YZ          ZX
  --------------------------------------------------------------------------------------
  Alpha Z    -0.60288    -0.60288    -0.60288
  Ewald     -94.30916   -88.63493   -66.17683    -0.79142     0.01133     0.08825
  Hartree    -8.50771     9.32496    13.97228    -0.06356     0.00070     0.01422
  E(xc)     -32.94145   -32.70803   -32.76227     0.01142    -0.00035    -0.00286
  Local       7.12937   -15.38687   -44.93591     0.83265    -0.01555    -0.17081
  n-local    79.08631    79.08631    79.08631     0.00000     0.00000     0.00000
  augment    -4.77174    -4.77174    -4.77174     0.00000     0.00000     0.00000
  Kinetic    44.32380    52.97686    67.22058    -0.00541     0.00097    -0.00000
  Fock        0.00000     0.00000     0.00000     0.00000     0.00000     0.00000
  -------------------------------------------------------------------------------------
  Total     -10.59344    -0.71632    11.02954    -0.01633    -0.00290    -0.07121
  in kB    -190.40339   -12.87498   198.24164    -0.29347    -0.05210    -1.27986
  external pressure =       -1.68 kB  Pullay stress =        0.00 kB

  kinetic pressure (ideal gas correction) =      0.30 kB
  total pressure  =     -1.38 kB
  Total+kin.  -190.068     -12.420     198.338       0.001      -0.103      -1.401

 VOLUME and BASIS-vectors are now :
 -----------------------------------------------------------------------------
  energy-cutoff  :      240.30
  volume of cell :       89.14
      direct lattice vectors                 reciprocal lattice vectors
     7.091057987  0.000000000  0.000000000     0.141022680  0.000000000  0.000000000
     0.000000000  3.545528993  0.000000000     0.000000000  0.282045360  0.000000000
     0.000000000  0.000000000  3.545528993     0.000000000  0.000000000  0.282045360

  length of vectors
     7.091057987  3.545528993  3.545528993     0.141022680  0.282045360  0.282045360


 FORCES acting on ions
    electron-ion (+dipol)            ewald-force                    non-local-force                 convergence-correction
 -----------------------------------------------------------------------------------------------
   0.274E+02 0.545E+00 0.846E-02   -.249E+02 -.459E+00 -.419E-01   -.257E+01 -.103E+00 -.904E-02   0.209E-02 0.633E-04 -.876E-04
   -.263E+02 0.943E+00 0.281E+00   0.230E+02 -.703E+00 -.219E+00   0.349E+01 -.424E+00 -.115E+00   -.222E-02 0.467E-04 -.650E-05
   0.226E+01 -.144E+01 0.149E+00   -.175E+01 0.109E+01 -.457E-01   -.727E+00 0.554E+00 -.519E-01   -.246E-04 -.109E-03 0.174E-04
   -.349E+01 -.357E-01 -.586E+00   0.356E+01 0.772E-01 0.307E+00   -.739E-01 -.352E-01 0.325E+00   0.419E-04 -.734E-04 0.857E-04
 -----------------------------------------------------------------------------------------------
   -.125E+00 0.924E-02 -.148E+00   0.000E+00 0.416E-16 -.666E-15   0.122E+00 -.885E-02 0.148E+00   -.114E-03 -.728E-04 0.894E-05


 POSITION                                       TOTAL-FORCE (eV/Angst)
 -----------------------------------------------------------------------------------
      0.46893      0.42110      3.54316        -0.010592     -0.017902     -0.042562
      3.00781      0.47402      0.01673         0.222575     -0.184245     -0.053728
      1.89136      2.17962      1.78491        -0.218057      0.196264      0.050985
      5.26849      0.47078      1.74627         0.003183      0.006204      0.045479
 -----------------------------------------------------------------------------------
    total drift:                               -0.002891      0.000321      0.000174


--------------------------------------------------------------------------------------------------------



  FREE ENERGIE OF THE ION-ELECTRON SYSTEM (eV)
  ---------------------------------------------------
  free  energy   TOTEN  =       -12.47738569 eV

  energy  without entropy=      -12.38822569  energy(sigma->0) =      -12.43280569

 d Force =-0.1096413E-02[-0.132E-02,-0.868E-03]  d Energy =-0.1092386E-02-0.403E-05
 d Force =-0.1794667E+00[-0.181E+00,-0.178E+00]  d Ewald  =-0.1794661E+00-0.660E-06


--------------------------------------------------------------------------------------------------------


    POTLOK:  cpu time      0.0047: real time      0.0047


--------------------------------------------------------------------------------------------------------


           RANDOM_SEED =         692598503                0                0
   IONSTEP:  cpu time      0.0001: real time      0.0001

  ENERGY OF THE ELECTRON-ION-THERMOSTAT SYSTEM (eV)
  ---------------------------------------------------
% ion-electron   TOTEN  =       -12.477386  see above
  kinetic energy EKIN   =         0.023171
  kin. lattice  EKIN_LAT=         0.000000  (temperature   59.75 K)
  nose potential ES     =         2.468488
  nose kinetic   EPS    =         0.911109
  ---------------------------------------------------
  total energy   ETOTAL =        -9.074618 eV

  maximum distance moved by ions :      0.15E-02


 mean value of Nose-termostat <S>:    30.657 mean value of <T> :    74.790
 mean temperature <T/S>/<1/S>  :    75.354

 Prediction of Wavefunctions ALPHA= 2.013 BETA=-1.015
    WAVPRE:  cpu time      0.0032: real time      0.0032
    FEWALD:  cpu time      0.0001: real time      0.0001
    ORTHCH:  cpu time      0.0007: real time      0.0007
    POTLOK:  cpu time      0.0045: real time      0.0046
    EDDIAG:  cpu time      0.0030: real time      0.0030
     LOOP+:  cpu time      0.0613: real time      0.0618
    4ORBIT:  cpu time      0.0000: real time      0.0000

 total amount of memory used by VASP MPI-rank0    31901. kBytes
=======================================================================

   base      :      30000. kBytes
   nonl-proj :        241. kBytes
   fftplans  :        418. kBytes
   grid      :        777. kBytes
   one-center:         12. kBytes
   wavefun   :        453. kBytes

  
  
 General timing and accounting informations for this job:
 ========================================================
  
                  Total CPU time used (sec):        6.228
                            User time (sec):        6.047
                          System time (sec):        0.180
                         Elapsed time (sec):        6.260
  
                   Maximum memory used (kb):       36972.
                   Average memory used (kb):          N/A
  
                          Minor page faults:         3744
                          Major page faults:           25
                 Voluntary context switches:           74
