<?xml version="1.0" encoding="ISO-8859-1"?>
<modeling>
 <generator>
  <i name="program" type="string">vasp </i>
  <i name="version" type="string">6.3.0  </i>
  <i name="subversion" type="string">20Jan22 (build Jan 13 2025 16:42:03) complex                          parallel </i>
  <i name="platform" type="string">LinuxGNU </i>
  <i name="date" type="string">2025 06 24 </i>
  <i name="time" type="string">19:35:18 </i>
 </generator>
 <incar>
  <i type="string" name="SYSTEM">Al, 4 atoms</i>
  <i type="int" name="IALGO">    48</i>
  <i type="int" name="MAXMIX">    60</i>
  <i type="int" name="IBRION">     0</i>
  <i type="int" name="NSW">   100</i>
  <i type="int" name="ISIF">     1</i>
  <i type="int" name="ISYM">     0</i>
  <i type="int" name="NBLOCK">     5</i>
  <i type="int" name="KBLOCK">     1</i>
  <i name="POTIM">      2.00000000</i>
  <i name="TEBEG">    920.00000000</i>
  <i name="SMASS">      1.00000000</i>
  <i type="int" name="ISMEAR">    -1</i>
  <i name="SIGMA">      0.07927600</i>
  <i type="int" name="NWRITE">     0</i>
  <i type="logical" name="LWAVE"> F  </i>
  <i type="logical" name="LCHARG"> F  </i>
 </incar>
 <primitive_cell>
  <structure name="primitive_cell" >
   <crystal>
    <varray name="basis" >
     <v>       7.09105799       0.00000000       0.00000000 </v>
     <v>       0.00000000       3.54552899       0.00000000 </v>
     <v>       0.00000000       0.00000000       3.54552899 </v>
    </varray>
    <i name="volume">     89.14010044 </i>
    <varray name="rec_basis" >
     <v>       0.14102268       0.00000000       0.00000000 </v>
     <v>       0.00000000       0.28204536       0.00000000 </v>
     <v>       0.00000000       0.00000000       0.28204536 </v>
    </varray>
   </crystal>
   <varray name="positions" >
    <v>       0.00978209       0.00916303       0.13036356 </v>
    <v>       0.45240347       0.19034682       0.78401169 </v>
    <v>       0.18530466       0.46681622       0.46798299 </v>
    <v>       0.85250979       0.33367392       0.61764177 </v>
   </varray>
  </structure>
  <varray name="primitive_index" >
   <v type="int" >        1 </v>
   <v type="int" >        2 </v>
   <v type="int" >        3 </v>
   <v type="int" >        4 </v>
  </varray>
 </primitive_cell>
 <kpoints>
  <generation param="Monkhorst-Pack">
   <v type="int" name="divisions">       2        2        2 </v>
   <v name="usershift">      0.00000000       0.00000000       0.00000000 </v>
   <v name="genvec1">      0.50000000       0.00000000       0.00000000 </v>
   <v name="genvec2">      0.00000000       0.50000000       0.00000000 </v>
   <v name="genvec3">      0.00000000       0.00000000       0.50000000 </v>
   <v name="shift">      0.50000000       0.50000000       0.50000000 </v>
  </generation>
  <varray name="kpointlist" >
   <v>       0.25000000       0.25000000       0.25000000 </v>
   <v>       0.25000000      -0.25000000       0.25000000 </v>
   <v>       0.25000000      -0.25000000      -0.25000000 </v>
   <v>       0.25000000       0.25000000      -0.25000000 </v>
  </varray>
  <varray name="weights" >
   <v>       0.25000000 </v>
   <v>       0.25000000 </v>
   <v>       0.25000000 </v>
   <v>       0.25000000 </v>
  </varray>
 </kpoints>
 <parameters>
  <separator name="general" >
   <i type="string" name="SYSTEM">Al, 4 atoms</i>
   <i type="logical" name="LCOMPAT"> F  </i>
  </separator>
  <separator name="electronic" >
   <i type="string" name="PREC">normal</i>
   <i name="ENMAX">    240.30000000</i>
   <i name="ENAUG">    291.05200000</i>
   <i name="EDIFF">      0.00010000</i>
   <i type="int" name="IALGO">    48</i>
   <i type="int" name="IWAVPR">    12</i>
   <i type="int" name="NBANDS">    12</i>
   <i type="int" name="NBANDSLOW">    -1</i>
   <i type="int" name="NBANDSHIGH">    -1</i>
   <i name="NELECT">     12.00000000</i>
   <i type="int" name="TURBO">     0</i>
   <i type="int" name="IRESTART">     0</i>
   <i type="int" name="NREBOOT">     0</i>
   <i type="int" name="NMIN">     0</i>
   <i name="EREF">      0.00000000</i>
   <separator name="electronic smearing" >
    <i type="int" name="ISMEAR">    -1</i>
    <i name="SIGMA">      0.07927600</i>
    <i name="KSPACING">      0.50000000</i>
    <i type="logical" name="KGAMMA"> T  </i>
    <i type="logical" name="KBLOWUP"> T  </i>
   </separator>
   <separator name="electronic projectors" >
    <i type="logical" name="LREAL"> F  </i>
    <v name="ROPT">      0.00000000</v>
    <i type="int" name="LMAXPAW">  -100</i>
    <i type="int" name="LMAXMIX">     2</i>
    <i type="logical" name="NLSPLINE"> F  </i>
   </separator>
   <separator name="electronic startup" >
    <i type="int" name="ISTART">     0</i>
    <i type="int" name="ICHARG">     2</i>
    <i type="int" name="INIWAV">     1</i>
   </separator>
   <separator name="electronic spin" >
    <i type="int" name="ISPIN">     1</i>
    <i type="logical" name="LNONCOLLINEAR"> F  </i>
    <v name="MAGMOM">      1.00000000      1.00000000      1.00000000      1.00000000</v>
    <i name="NUPDOWN">     -1.00000000</i>
    <i type="logical" name="LSORBIT"> F  </i>
    <v name="SAXIS">      0.00000000      0.00000000      1.00000000</v>
    <i type="logical" name="LSPIRAL"> F  </i>
    <v name="QSPIRAL">      0.00000000      0.00000000      0.00000000</v>
    <i type="logical" name="LZEROZ"> F  </i>
   </separator>
   <separator name="electronic exchange-correlation" >
    <i type="logical" name="LASPH"> F  </i>
    <i type="logical" name="LMETAGGA"> F  </i>
   </separator>
   <separator name="electronic convergence" >
    <i type="int" name="NELM">    60</i>
    <i type="int" name="NELMDL">     0</i>
    <i type="int" name="NELMIN">     2</i>
    <i name="ENINI">    240.30000000</i>
    <separator name="electronic convergence detail" >
     <i type="logical" name="LDIAG"> T  </i>
     <i type="logical" name="LSUBROT"> F  </i>
     <i name="WEIMIN">      0.00100000</i>
     <i name="EBREAK">      0.00000208</i>
     <i name="DEPER">      0.30000000</i>
     <i type="int" name="NRMM">     4</i>
     <i name="TIME">      0.40000000</i>
    </separator>
   </separator>
   <separator name="electronic mixer" >
    <i name="AMIX">      0.40000000</i>
    <i name="BMIX">      1.00000000</i>
    <i name="AMIN">      0.10000000</i>
    <i name="AMIX_MAG">      1.60000000</i>
    <i name="BMIX_MAG">      1.00000000</i>
    <separator name="electronic mixer details" >
     <i type="int" name="IMIX">     4</i>
     <i type="logical" name="MIXFIRST"> F  </i>
     <i type="int" name="MAXMIX">    60</i>
     <i name="WC">    100.00000000</i>
     <i type="int" name="INIMIX">     1</i>
     <i type="int" name="MIXPRE">     1</i>
     <i type="int" name="MREMOVE">     5</i>
    </separator>
   </separator>
   <separator name="electronic dipolcorrection" >
    <i type="logical" name="LDIPOL"> F  </i>
    <i type="logical" name="LMONO"> F  </i>
    <i type="int" name="IDIPOL">     0</i>
    <i name="EPSILON">      1.00000000</i>
    <v name="DIPOL">   -100.00000000   -100.00000000   -100.00000000</v>
    <i name="EFIELD">      0.00000000</i>
   </separator>
  </separator>
  <separator name="grids" >
   <i type="int" name="NGX">    28</i>
   <i type="int" name="NGY">    14</i>
   <i type="int" name="NGZ">    14</i>
   <i type="int" name="NGXF">    56</i>
   <i type="int" name="NGYF">    28</i>
   <i type="int" name="NGZF">    28</i>
   <i type="logical" name="ADDGRID"> F  </i>
  </separator>
  <separator name="ionic" >
   <i type="int" name="NSW">   100</i>
   <i type="int" name="IBRION">     0</i>
   <i type="int" name="MDALGO">     0</i>
   <i type="int" name="ISIF">     1</i>
   <i name="PSTRESS">      0.00000000</i>
   <i name="EDIFFG">      0.00100000</i>
   <i type="int" name="NFREE">     0</i>
   <i name="POTIM">      2.00000000</i>
   <i name="SMASS">      1.00000000</i>
   <i name="SCALEE">      1.00000000</i>
  </separator>
  <separator name="ionic md" >
   <i name="TEBEG">    920.00000000</i>
   <i name="TEEND">    920.00000000</i>
   <i type="int" name="NBLOCK">     5</i>
   <i type="int" name="KBLOCK">     1</i>
   <i type="int" name="NPACO">   256</i>
   <i name="APACO">     10.00000000</i>
  </separator>
  <separator name="symmetry" >
   <i type="int" name="ISYM">     0</i>
   <i name="SYMPREC">      0.00001000</i>
  </separator>
  <separator name="dos" >
   <i type="int" name="LORBIT">     0</i>
   <v name="RWIGS">     -1.00000000</v>
   <i type="int" name="NEDOS">   301</i>
   <i name="EMIN">     10.00000000</i>
   <i name="EMAX">    -10.00000000</i>
   <i name="EFERMI">      0.00000000</i>
  </separator>
  <separator name="writing" >
   <i type="int" name="NWRITE">     0</i>
   <i type="logical" name="LWAVE"> F  </i>
   <i type="logical" name="LDOWNSAMPLE"> F  </i>
   <i type="logical" name="LCHARG"> F  </i>
   <i type="logical" name="LPARD"> F  </i>
   <i type="logical" name="LVTOT"> F  </i>
   <i type="logical" name="LVHAR"> F  </i>
   <i type="logical" name="LELF"> F  </i>
   <i type="logical" name="LOPTICS"> F  </i>
   <v name="STM">      0.00000000      0.00000000      0.00000000      0.00000000      0.00000000      0.00000000      0.00000000</v>
  </separator>
  <separator name="performance" >
   <i type="int" name="NPAR">     4</i>
   <i type="int" name="NSIM">     4</i>
   <i type="int" name="NBLK">    -1</i>
   <i type="logical" name="LPLANE"> T  </i>
   <i type="logical" name="LSCALAPACK"> T  </i>
   <i type="logical" name="LSCAAWARE"> F  </i>
   <i type="logical" name="LSCALU"> F  </i>
   <i type="logical" name="LASYNC"> F  </i>
   <i type="logical" name="LORBITALREAL"> F  </i>
  </separator>
  <separator name="miscellaneous" >
   <i type="int" name="IDIOT">     3</i>
   <i type="int" name="PHON_NSTRUCT">    -1</i>
   <i type="logical" name="LMUSIC"> F  </i>
   <v name="POMASS">     26.98100000</v>
   <v name="DARWINR">      0.00000000</v>
   <v name="DARWINV">      1.00000000</v>
   <i type="logical" name="LCORR"> T  </i>
  </separator>
  <i type="logical" name="GGA_COMPAT"> T  </i>
  <i type="logical" name="LBERRY"> F  </i>
  <i type="int" name="ICORELEVEL">     0</i>
  <i type="logical" name="LDAU"> F  </i>
  <i type="int" name="I_CONSTRAINED_M">     0</i>
  <separator name="electronic exchange-correlation" >
   <i type="string" name="GGA">--</i>
   <i type="int" name="VOSKOWN">     0</i>
   <i type="logical" name="LHFCALC"> F  </i>
   <i type="string" name="PRECFOCK"></i>
   <i type="logical" name="LSYMGRAD"> F  </i>
   <i type="logical" name="LHFONE"> F  </i>
   <i type="logical" name="LRHFCALC"> F  </i>
   <i type="logical" name="LTHOMAS"> F  </i>
   <i type="logical" name="LMODELHF"> F  </i>
   <i type="logical" name="LFOCKACE"> F  </i>
   <i name="ENCUT4O">     -1.00000000</i>
   <i type="int" name="EXXOEP">     0</i>
   <i type="int" name="FOURORBIT">     0</i>
   <i name="AEXX">      0.00000000</i>
   <i name="HFALPHA">      0.00000000</i>
   <i name="MCALPHA">      0.00000000</i>
   <i name="ALDAX">      1.00000000</i>
   <i name="AGGAX">      1.00000000</i>
   <i name="ALDAC">      1.00000000</i>
   <i name="AGGAC">      1.00000000</i>
   <i type="int" name="NKREDX">     1</i>
   <i type="int" name="NKREDY">     1</i>
   <i type="int" name="NKREDZ">     1</i>
   <i type="logical" name="SHIFTRED"> F  </i>
   <i type="logical" name="ODDONLY"> F  </i>
   <i type="logical" name="EVENONLY"> F  </i>
   <i type="int" name="LMAXFOCK">     0</i>
   <i type="int" name="NMAXFOCKAE">     0</i>
   <i type="logical" name="LFOCKAEDFT"> F  </i>
   <i name="HFSCREEN">      0.00000000</i>
   <i name="HFSCREENC">      0.00000000</i>
   <i type="int" name="NBANDSGWLOW">     0</i>
  </separator>
  <separator name="vdW DFT" >
   <i type="logical" name="LUSE_VDW"> F  </i>
   <i name="Zab_VDW">     -0.84910000</i>
   <i name="PARAM1">      0.12340000</i>
   <i name="PARAM2">      1.00000000</i>
   <i name="PARAM3">      0.00000000</i>
  </separator>
  <separator name="model GW" >
   <i type="int" name="MODEL_GW">     0</i>
   <i name="MODEL_EPS0">     13.37101507</i>
   <i name="MODEL_ALPHA">      1.00000000</i>
  </separator>
  <separator name="linear response parameters" >
   <i type="logical" name="LEPSILON"> F  </i>
   <i type="logical" name="LRPA"> F  </i>
   <i type="logical" name="LNABLA"> F  </i>
   <i type="logical" name="LVEL"> F  </i>
   <i name="CSHIFT">      0.10000000</i>
   <i name="OMEGAMAX">     -1.00000000</i>
   <i name="DEG_THRESHOLD">      0.00200000</i>
   <i name="RTIME">     -0.10000000</i>
   <i name="WPLASMAI">      0.00000000</i>
   <v name="DFIELD">      0.00000000      0.00000000      0.00000000</v>
   <v name="WPLASMA">      0.00000000      0.00000000      0.00000000      0.00000000      0.00000000      0.00000000      0.00000000      0.00000000      0.00000000</v>
  </separator>
  <separator name="orbital magnetization" >
   <i type="logical" name="NUCIND"> F  </i>
   <v name="MAGPOS">      0.00000000      0.00000000      0.00000000</v>
   <i type="logical" name="LNICSALL"> T  </i>
   <i type="logical" name="ORBITALMAG"> F  </i>
   <i type="logical" name="LMAGBLOCH"> F  </i>
   <i type="logical" name="LCHIMAG"> F  </i>
   <i type="logical" name="LGAUGE"> T  </i>
   <i type="int" name="MAGATOM">     0</i>
   <v name="MAGDIPOL">      0.00000000      0.00000000      0.00000000</v>
   <v name="AVECCONST">      0.00000000      0.00000000      0.00000000</v>
  </separator>
  <separator name="response functions" >
   <i type="logical" name="LFINITE_TEMPERATURE"> F  </i>
   <i type="logical" name="LADDER"> F  </i>
   <i type="logical" name="LRPAFORCE"> F  </i>
   <i type="logical" name="LFXC"> F  </i>
   <i type="logical" name="LHARTREE"> T  </i>
   <i type="int" name="IBSE">     0</i>
   <v type="int" name="KPOINT">    -1     0     0     0</v>
   <i type="logical" name="LTCTC"> F  </i>
   <i type="logical" name="LTCTE"> F  </i>
   <i type="logical" name="LTETE"> F  </i>
   <i type="logical" name="LTRIPLET"> F  </i>
   <i type="logical" name="LFXCEPS"> F  </i>
   <i type="logical" name="LFXHEG"> F  </i>
   <i type="int" name="NATURALO">     2</i>
   <i type="logical" name="LHOLEGF"> F  </i>
   <i type="logical" name="L2ORDER"> F  </i>
   <i type="logical" name="LDMP1"> F  </i>
   <i type="logical" name="LMP2LT"> F  </i>
   <i type="logical" name="LSMP2LT"> F  </i>
   <i type="logical" name="LGWLF"> F  </i>
   <i name="ENCUTGW">     -2.00000000</i>
   <i name="ENCUTGWSOFT">     -2.00000000</i>
   <i name="ENCUTLF">     -1.00000000</i>
   <i type="logical" name="LESF_SPLINES"> F  </i>
   <i type="int" name="LMAXMP2">    -1</i>
   <i name="SCISSOR">      0.00000000</i>
   <i type="int" name="NOMEGA">     0</i>
   <i type="int" name="NOMEGAR">     0</i>
   <i type="int" name="NBANDSGW">    -1</i>
   <i type="int" name="NBANDSO">    -1</i>
   <i type="int" name="NBANDSV">    -1</i>
   <i type="int" name="NELMGW">     1</i>
   <i type="int" name="NELMHF">     1</i>
   <i type="int" name="DIM">     3</i>
   <i type="int" name="IESPILON">     4</i>
   <i type="int" name="ANTIRES">     0</i>
   <i name="OMEGAMAX">    -30.00000000</i>
   <i name="OMEGAMIN">    -30.00000000</i>
   <i name="OMEGATL">   -200.00000000</i>
   <i type="int" name="OMEGAGRID">     0</i>
   <i name="CSHIFT">     -0.10000000</i>
   <i type="logical" name="LSELFENERGY"> F  </i>
   <i type="logical" name="LSPECTRAL"> F  </i>
   <i type="logical" name="LSPECTRALGW"> F  </i>
   <i type="logical" name="LSINGLES"> F  </i>
   <i type="logical" name="LFERMIGW"> F  </i>
   <i type="logical" name="ODDONLYGW"> F  </i>
   <i type="logical" name="EVENONLYGW"> F  </i>
   <i type="int" name="NKREDLFX">     1</i>
   <i type="int" name="NKREDLFY">     1</i>
   <i type="int" name="NKREDLFZ">     1</i>
   <i type="int" name="MAXMEM">  2800</i>
   <i type="int" name="TELESCOPE">     0</i>
   <i type="int" name="NTAUPAR">    -1</i>
   <i type="int" name="NOMEGAPAR">    -1</i>
   <i name="DAMP_NEWTON">      0.80000001</i>
   <i name="LAMBDA">      1.00000000</i>
  </separator>
  <separator name="External order field" >
   <i name="OFIELD_KAPPA">      0.00000000</i>
   <v name="OFIELD_K">      0.00000000      0.00000000      0.00000000</v>
   <i name="OFIELD_Q6_NEAR">      0.00000000</i>
   <i name="OFIELD_Q6_FAR">      0.00000000</i>
   <i name="OFIELD_A">      0.00000000</i>
  </separator>
  <separator name="optional k-points parameters" >
   <i type="int" name="KPOINTS_OPT_MODE">     1</i>
   <i type="logical" name="LKPOINTS_OPT"> F  </i>
  </separator>
 </parameters>
 <atominfo>
  <atoms>       4 </atoms>
  <types>       1 </types>
  <array name="atoms" >
   <dimension dim="1">ion</dimension>
   <field type="string">element</field>
   <field type="int">atomtype</field>
   <set>
    <rc><c>Al</c><c>   1</c></rc>
    <rc><c>Al</c><c>   1</c></rc>
    <rc><c>Al</c><c>   1</c></rc>
    <rc><c>Al</c><c>   1</c></rc>
   </set>
  </array>
  <array name="atomtypes" >
   <dimension dim="1">type</dimension>
   <field type="int">atomspertype</field>
   <field type="string">element</field>
   <field>mass</field>
   <field>valence</field>
   <field type="string">pseudopotential</field>
   <set>
    <rc><c>   4</c><c>Al</c><c>     26.98100000</c><c>      3.00000000</c><c>  PAW_PBE Al 04Jan2001                  </c></rc>
   </set>
  </array>
 </atominfo>
 <structure name="initialpos" >
  <crystal>
   <varray name="basis" >
    <v>       7.09105799       0.00000000       0.00000000 </v>
    <v>       0.00000000       3.54552899       0.00000000 </v>
    <v>       0.00000000       0.00000000       3.54552899 </v>
   </varray>
   <i name="volume">     89.14010044 </i>
   <varray name="rec_basis" >
    <v>       0.14102268       0.00000000       0.00000000 </v>
    <v>       0.00000000       0.28204536       0.00000000 </v>
    <v>       0.00000000       0.00000000       0.28204536 </v>
   </varray>
  </crystal>
  <varray name="positions" >
   <v>       0.00978209       0.00916303       0.13036356 </v>
   <v>       0.45240347       0.19034682       0.78401169 </v>
   <v>       0.18530466       0.46681622       0.46798299 </v>
   <v>       0.85250979       0.33367392       0.61764177 </v>
  </varray>
  <varray name="velocities" >
   <v>       0.00153180       0.00010206       0.00423461 </v>
   <v>       0.00314703      -0.00040524       0.00214140 </v>
   <v>      -0.00401643       0.01191230       0.00427962 </v>
   <v>      -0.00066240      -0.01160912      -0.01065563 </v>
  </varray>
 </structure>
 <calculation>
  <scstep>
   <time name="diag">    0.00    0.00</time>
   <time name="diis">    0.01    0.01</time>
   <time name="orth">    0.00    0.00</time>
   <time name="total">    0.02    0.02</time>
   <energy>
    <i name="alphaZ">     -0.60288196 </i>
    <i name="ewald">   -235.98585236 </i>
    <i name="hartreedc">    -19.40020629 </i>
    <i name="XCdc">   -106.40000679 </i>
    <i name="pawpsdc">    264.80062850 </i>
    <i name="pawaedc">   -136.98248303 </i>
    <i name="eentropy">     -0.05682657 </i>
    <i name="bandstr">     42.76007708 </i>
    <i name="atom">    214.14321246 </i>
    <i name="e_fr_energy">     22.27566104 </i>
    <i name="e_wo_entrp">     22.33248761 </i>
    <i name="e_0_energy">     22.30407433 </i>
   </energy>
  </scstep>
  <scstep>
   <time name="diag">    0.00    0.00</time>
   <time name="diis">    0.00    0.00</time>
   <time name="orth">    0.00    0.00</time>
   <time name="total">    0.01    0.01</time>
   <energy>
    <i name="e_fr_energy">     -5.43924125 </i>
    <i name="e_wo_entrp">     -5.40283608 </i>
    <i name="e_0_energy">     -5.42103867 </i>
   </energy>
  </scstep>
  <scstep>
   <time name="diag">    0.00    0.00</time>
   <time name="diis">    0.00    0.00</time>
   <time name="orth">    0.00    0.00</time>
   <time name="total">    0.01    0.01</time>
   <energy>
    <i name="e_fr_energy">    -11.01381932 </i>
    <i name="e_wo_entrp">    -10.94399529 </i>
    <i name="e_0_energy">    -10.97890730 </i>
   </energy>
  </scstep>
  <scstep>
   <time name="diag">    0.00    0.00</time>
   <time name="diis">    0.01    0.01</time>
   <time name="orth">    0.00    0.00</time>
   <time name="total">    0.01    0.01</time>
   <energy>
    <i name="e_fr_energy">    -12.24489509 </i>
    <i name="e_wo_entrp">    -12.18523056 </i>
    <i name="e_0_energy">    -12.21506283 </i>
   </energy>
  </scstep>
  <scstep>
   <time name="diag">    0.00    0.00</time>
   <time name="diis">    0.01    0.01</time>
   <time name="orth">    0.00    0.00</time>
   <time name="total">    0.01    0.01</time>
   <energy>
    <i name="e_fr_energy">    -12.56510865 </i>
    <i name="e_wo_entrp">    -12.50269801 </i>
    <i name="e_0_energy">    -12.53390333 </i>
   </energy>
  </scstep>
  <scstep>
   <time name="diag">    0.00    0.00</time>
   <time name="diis">    0.01    0.01</time>
   <time name="orth">    0.00    0.00</time>
   <time name="total">    0.01    0.01</time>
   <energy>
    <i name="e_fr_energy">    -12.63729009 </i>
    <i name="e_wo_entrp">    -12.57856449 </i>
    <i name="e_0_energy">    -12.60792729 </i>
   </energy>
  </scstep>
  <scstep>
   <time name="diag">    0.00    0.00</time>
   <time name="diis">    0.00    0.00</time>
   <time name="orth">    0.00    0.00</time>
   <time name="total">    0.01    0.01</time>
   <energy>
    <i name="e_fr_energy">    -12.65241619 </i>
    <i name="e_wo_entrp">    -12.59387988 </i>
    <i name="e_0_energy">    -12.62314804 </i>
   </energy>
  </scstep>
  <scstep>
   <time name="diag">    0.00    0.00</time>
   <time name="diis">    0.00    0.00</time>
   <time name="orth">    0.00    0.00</time>
   <time name="total">    0.01    0.01</time>
   <energy>
    <i name="e_fr_energy">    -12.65606390 </i>
    <i name="e_wo_entrp">    -12.59750640 </i>
    <i name="e_0_energy">    -12.62678515 </i>
   </energy>
  </scstep>
  <scstep>
   <time name="diag">    0.00    0.00</time>
   <time name="diis">    0.01    0.01</time>
   <time name="orth">    0.00    0.00</time>
   <time name="total">    0.01    0.01</time>
   <energy>
    <i name="e_fr_energy">    -12.65696380 </i>
    <i name="e_wo_entrp">    -12.59839405 </i>
    <i name="e_0_energy">    -12.62767892 </i>
   </energy>
  </scstep>
  <scstep>
   <time name="diag">    0.00    0.00</time>
   <time name="diis">    0.01    0.01</time>
   <time name="orth">    0.00    0.00</time>
   <time name="total">    0.01    0.01</time>
   <energy>
    <i name="e_fr_energy">    -12.65726189 </i>
    <i name="e_wo_entrp">    -12.59868744 </i>
    <i name="e_0_energy">    -12.62797467 </i>
   </energy>
  </scstep>
  <scstep>
   <time name="diag">    0.00    0.00</time>
   <time name="diis">    0.01    0.01</time>
   <time name="orth">    0.00    0.00</time>
   <time name="total">    0.01    0.01</time>
   <energy>
    <i name="e_fr_energy">    -12.65730356 </i>
    <i name="e_wo_entrp">    -12.59872850 </i>
    <i name="e_0_energy">    -12.62801603 </i>
   </energy>
  </scstep>
  <scstep>
   <time name="diag">    0.00    0.00</time>
   <time name="diis">    0.01    0.01</time>
   <time name="orth">    0.00    0.00</time>
   <time name="total">    0.02    0.02</time>
   <energy>
    <i name="e_fr_energy">    -12.65731756 </i>
    <i name="e_wo_entrp">    -12.59874230 </i>
    <i name="e_0_energy">    -12.62802993 </i>
   </energy>
  </scstep>
  <scstep>
   <time name="diag">    0.00    0.00</time>
   <time name="diis">    0.01    0.01</time>
   <time name="orth">    0.00    0.00</time>
   <time name="total">    0.02    0.02</time>
   <energy>
    <i name="e_fr_energy">    -11.38917442 </i>
    <i name="e_wo_entrp">    -11.29121875 </i>
    <i name="e_0_energy">    -11.34019658 </i>
   </energy>
  </scstep>
  <scstep>
   <time name="diag">    0.00    0.00</time>
   <time name="diis">    0.01    0.01</time>
   <time name="orth">    0.00    0.00</time>
   <time name="total">    0.02    0.02</time>
   <energy>
    <i name="e_fr_energy">    -11.29540975 </i>
    <i name="e_wo_entrp">    -11.19656517 </i>
    <i name="e_0_energy">    -11.24598746 </i>
   </energy>
  </scstep>
  <scstep>
   <time name="diag">    0.00    0.00</time>
   <time name="diis">    0.01    0.01</time>
   <time name="orth">    0.00    0.00</time>
   <time name="total">    0.02    0.02</time>
   <energy>
    <i name="e_fr_energy">    -11.28669514 </i>
    <i name="e_wo_entrp">    -11.18644811 </i>
    <i name="e_0_energy">    -11.23657162 </i>
   </energy>
  </scstep>
  <scstep>
   <time name="diag">    0.00    0.00</time>
   <time name="diis">    0.01    0.01</time>
   <time name="orth">    0.00    0.00</time>
   <time name="total">    0.02    0.02</time>
   <energy>
    <i name="e_fr_energy">    -11.28531679 </i>
    <i name="e_wo_entrp">    -11.18488337 </i>
    <i name="e_0_energy">    -11.23510008 </i>
   </energy>
  </scstep>
  <scstep>
   <time name="diag">    0.00    0.00</time>
   <time name="diis">    0.01    0.01</time>
   <time name="orth">    0.00    0.00</time>
   <time name="total">    0.02    0.02</time>
   <energy>
    <i name="alphaZ">     -0.60288196 </i>
    <i name="ewald">   -235.98585236 </i>
    <i name="hartreedc">    -24.61890473 </i>
    <i name="XCdc">   -105.82037805 </i>
    <i name="pawpsdc">    762.83444902 </i>
    <i name="pawaedc">   -635.20343271 </i>
    <i name="eentropy">     -0.10027416 </i>
    <i name="bandstr">     14.06879420 </i>
    <i name="atom">    214.14321246 </i>
    <i name="e_fr_energy">    -11.28526829 </i>
    <i name="e_wo_entrp">    -11.18499414 </i>
    <i name="e_0_energy">    -11.23513121 </i>
   </energy>
  </scstep>
  <structure>
   <crystal>
    <varray name="basis" >
     <v>       7.09105799       0.00000000       0.00000000 </v>
     <v>       0.00000000       3.54552899       0.00000000 </v>
     <v>       0.00000000       0.00000000       3.54552899 </v>
    </varray>
    <i name="volume">     89.14010044 </i>
    <varray name="rec_basis" >
     <v>       0.14102268       0.00000000       0.00000000 </v>
     <v>       0.00000000       0.28204536       0.00000000 </v>
     <v>       0.00000000       0.00000000       0.28204536 </v>
    </varray>
   </crystal>
   <varray name="positions" >
    <v>       0.00978209       0.00916303       0.13036356 </v>
    <v>       0.45240347       0.19034682       0.78401169 </v>
    <v>       0.18530466       0.46681622       0.46798299 </v>
    <v>       0.85250979       0.33367392       0.61764177 </v>
   </varray>
  </structure>
  <varray name="forces" >
   <v>       0.62622180      -2.43982768      -1.59311976 </v>
   <v>       0.79717712      -0.36685233       0.81705554 </v>
   <v>       0.50353765       1.55295882       0.33323176 </v>
   <v>      -1.92620594       1.25848907       0.44312940 </v>
  </varray>
  <varray name="stress" >
   <v>     -65.20622279      -5.87528375       6.96562253 </v>
   <v>      -5.87528375      85.02428324      20.03195989 </v>
   <v>       6.96562253      20.03195989     208.65009941 </v>
  </varray>
  <energy>
   <i name="e_fr_energy">    -11.28526829 </i>
   <i name="e_wo_entrp">    -11.18499414 </i>
   <i name="e_0_energy">    -11.23513121 </i>
   <i name="kinetic">      2.45107281 </i>
   <i name="lattice kinetic">      0.00000000 </i>
   <i name="nosepot">     -0.46319028 </i>
   <i name="nosekinetic">      0.21847771 </i>
   <i name="total">     -9.07890805 </i>
  </energy>
  <time name="totalsc">    0.25    0.25</time>
 </calculation>
 <calculation>
  <scstep>
   <time name="diag">    0.00    0.00</time>
   <time name="diis">    0.01    0.01</time>
   <time name="orth">    0.00    0.00</time>
   <time name="total">    0.02    0.02</time>
   <energy>
    <i name="alphaZ">     -0.60288196 </i>
    <i name="ewald">   -235.98069323 </i>
    <i name="hartreedc">    -24.59379797 </i>
    <i name="XCdc">   -105.81846380 </i>
    <i name="pawpsdc">    760.40018169 </i>
    <i name="pawaedc">   -632.76964186 </i>
    <i name="eentropy">     -0.09772640 </i>
    <i name="bandstr">     14.02419170 </i>
    <i name="atom">    214.14321246 </i>
    <i name="e_fr_energy">    -11.29561937 </i>
    <i name="e_wo_entrp">    -11.19789297 </i>
    <i name="e_0_energy">    -11.24675617 </i>
   </energy>
  </scstep>
  <scstep>
   <time name="diag">    0.00    0.00</time>
   <time name="diis">    0.01    0.01</time>
   <time name="orth">    0.00    0.00</time>
   <time name="total">    0.02    0.02</time>
   <energy>
    <i name="e_fr_energy">    -11.29308658 </i>
    <i name="e_wo_entrp">    -11.19408056 </i>
    <i name="e_0_energy">    -11.24358357 </i>
   </energy>
  </scstep>
  <scstep>
   <time name="diag">    0.00    0.00</time>
   <time name="diis">    0.01    0.01</time>
   <time name="orth">    0.00    0.00</time>
   <time name="total">    0.02    0.02</time>
   <energy>
    <i name="e_fr_energy">    -11.29304448 </i>
    <i name="e_wo_entrp">    -11.19424560 </i>
    <i name="e_0_energy">    -11.24364504 </i>
   </energy>
  </scstep>
  <scstep>
   <time name="diag">    0.00    0.00</time>
   <time name="diis">    0.01    0.01</time>
   <time name="orth">    0.00    0.00</time>
   <time name="total">    0.02    0.02</time>
   <energy>
    <i name="alphaZ">     -0.60288196 </i>
    <i name="ewald">   -235.98069323 </i>
    <i name="hartreedc">    -24.66716162 </i>
    <i name="XCdc">   -105.81440865 </i>
    <i name="pawpsdc">    751.86699589 </i>
    <i name="pawaedc">   -624.23849982 </i>
    <i name="eentropy">     -0.09867859 </i>
    <i name="bandstr">     14.09898201 </i>
    <i name="atom">    214.14321246 </i>
    <i name="e_fr_energy">    -11.29313352 </i>
    <i name="e_wo_entrp">    -11.19445493 </i>
    <i name="e_0_energy">    -11.24379423 </i>
   </energy>
  </scstep>
  <structure>
   <crystal>
    <varray name="basis" >
     <v>       7.09105799       0.00000000       0.00000000 </v>
     <v>       0.00000000       3.54552899       0.00000000 </v>
     <v>       0.00000000       0.00000000       3.54552899 </v>
    </varray>
    <i name="volume">     89.14010044 </i>
    <varray name="rec_basis" >
     <v>       0.14102268       0.00000000       0.00000000 </v>
     <v>       0.00000000       0.28204536       0.00000000 </v>
     <v>       0.00000000       0.00000000       0.28204536 </v>
    </varray>
   </crystal>
   <varray name="positions" >
    <v>       0.01146965       0.00827307       0.13402774 </v>
    <v>       0.45577092       0.18978423       0.78652532 </v>
    <v>       0.18131647       0.47958053       0.47247736 </v>
    <v>       0.85144297       0.32236217       0.60696960 </v>
   </varray>
  </structure>
  <varray name="forces" >
   <v>       0.74230332      -2.27734664      -2.03998012 </v>
   <v>       0.54723974      -0.21933341       0.61203566 </v>
   <v>       0.87811838       1.24121269       0.60744714 </v>
   <v>      -2.17030859       1.25851378       0.82232779 </v>
  </varray>
  <varray name="stress" >
   <v>     -60.98969509      -8.02652845       0.70550743 </v>
   <v>      -8.02652845      83.28000819      22.97337485 </v>
   <v>       0.70550743      22.97337485     209.83459343 </v>
  </varray>
  <energy>
   <i name="e_fr_energy">    -11.29313352 </i>
   <i name="e_wo_entrp">    -11.19445493 </i>
   <i name="e_0_energy">    -11.24379423 </i>
   <i name="kinetic">      2.54181729 </i>
   <i name="lattice kinetic">      0.00000000 </i>
   <i name="nosepot">     -0.47508929 </i>
   <i name="nosekinetic">      0.14708758 </i>
   <i name="total">     -9.07931793 </i>
  </energy>
  <time name="totalsc">    0.10    0.10</time>
 </calculation>
 <calculation>
  <scstep>
   <time name="diag">    0.00    0.00</time>
   <time name="diis">    0.01    0.01</time>
   <time name="orth">    0.00    0.00</time>
   <time name="total">    0.02    0.02</time>
   <energy>
    <i name="alphaZ">     -0.60288196 </i>
    <i name="ewald">   -236.09462068 </i>
    <i name="hartreedc">    -24.68073000 </i>
    <i name="XCdc">   -105.81011407 </i>
    <i name="pawpsdc">    748.73772859 </i>
    <i name="pawaedc">   -621.11232344 </i>
    <i name="eentropy">     -0.09594508 </i>
    <i name="bandstr">     14.23013912 </i>
    <i name="atom">    214.14321246 </i>
    <i name="e_fr_energy">    -11.28553507 </i>
    <i name="e_wo_entrp">    -11.18958998 </i>
    <i name="e_0_energy">    -11.23756253 </i>
   </energy>
  </scstep>
  <scstep>
   <time name="diag">    0.00    0.00</time>
   <time name="diis">    0.01    0.01</time>
   <time name="orth">    0.00    0.00</time>
   <time name="total">    0.02    0.02</time>
   <energy>
    <i name="e_fr_energy">    -11.28556114 </i>
    <i name="e_wo_entrp">    -11.18982573 </i>
    <i name="e_0_energy">    -11.23769343 </i>
   </energy>
  </scstep>
  <scstep>
   <time name="diag">    0.00    0.00</time>
   <time name="diis">    0.01    0.01</time>
   <time name="orth">    0.00    0.00</time>
   <time name="total">    0.02    0.02</time>
   <energy>
    <i name="alphaZ">     -0.60288196 </i>
    <i name="ewald">   -236.09462068 </i>
    <i name="hartreedc">    -24.63612570 </i>
    <i name="XCdc">   -105.81409592 </i>
    <i name="pawpsdc">    763.01083946 </i>
    <i name="pawaedc">   -635.38491337 </i>
    <i name="eentropy">     -0.09567358 </i>
    <i name="bandstr">     14.18866062 </i>
    <i name="atom">    214.14321246 </i>
    <i name="e_fr_energy">    -11.28559867 </i>
    <i name="e_wo_entrp">    -11.18992508 </i>
    <i name="e_0_energy">    -11.23776187 </i>
   </energy>
  </scstep>
  <structure>
   <crystal>
    <varray name="basis" >
     <v>       7.09105799       0.00000000       0.00000000 </v>
     <v>       0.00000000       3.54552899       0.00000000 </v>
     <v>       0.00000000       0.00000000       3.54552899 </v>
    </varray>
    <i name="volume">     89.14010044 </i>
    <varray name="rec_basis" >
     <v>       0.14102268       0.00000000       0.00000000 </v>
     <v>       0.00000000       0.28204536       0.00000000 </v>
     <v>       0.00000000       0.00000000       0.28204536 </v>
    </varray>
   </crystal>
   <varray name="positions" >
    <v>       0.01333377       0.00644358       0.13691796 </v>
    <v>       0.45930072       0.18912366       0.78932560 </v>
    <v>       0.17744651       0.49304233       0.47728651 </v>
    <v>       0.84991901       0.31139042       0.59646994 </v>
   </varray>
  </structure>
  <varray name="forces" >
   <v>       0.86171461      -2.04104414      -2.48074768 </v>
   <v>       0.34855047      -0.10087604       0.44771406 </v>
   <v>       1.15985154       0.87893110       0.86545554 </v>
   <v>      -2.37371329       1.26208473       1.16714816 </v>
  </varray>
  <varray name="stress" >
   <v>     -57.86053756     -11.85126889      -4.36025164 </v>
   <v>     -11.85126889      81.83989294      25.15835085 </v>
   <v>      -4.36025164      25.15835085     210.96171808 </v>
  </varray>
  <energy>
   <i name="e_fr_energy">    -11.28559867 </i>
   <i name="e_wo_entrp">    -11.18992508 </i>
   <i name="e_0_energy">    -11.23776187 </i>
   <i name="kinetic">      2.60275486 </i>
   <i name="lattice kinetic">      0.00000000 </i>
   <i name="nosepot">     -0.48459671 </i>
   <i name="nosekinetic">      0.08799647 </i>
   <i name="total">     -9.07944405 </i>
  </energy>
  <time name="totalsc">    0.08    0.08</time>
 </calculation>
 <calculation>
  <scstep>
   <time name="diag">    0.00    0.00</time>
   <time name="diis">    0.01    0.01</time>
   <time name="orth">    0.00    0.00</time>
   <time name="total">    0.02    0.02</time>
   <energy>
    <i name="alphaZ">     -0.60288196 </i>
    <i name="ewald">   -236.34326638 </i>
    <i name="hartreedc">    -24.43377383 </i>
    <i name="XCdc">   -105.82898791 </i>
    <i name="pawpsdc">    783.16034111 </i>
    <i name="pawaedc">   -655.53471716 </i>
    <i name="eentropy">     -0.09078992 </i>
    <i name="bandstr">     14.26291699 </i>
    <i name="atom">    214.14321246 </i>
    <i name="e_fr_energy">    -11.26794662 </i>
    <i name="e_wo_entrp">    -11.17715669 </i>
    <i name="e_0_energy">    -11.22255166 </i>
   </energy>
  </scstep>
  <scstep>
   <time name="diag">    0.00    0.00</time>
   <time name="diis">    0.01    0.01</time>
   <time name="orth">    0.00    0.00</time>
   <time name="total">    0.02    0.02</time>
   <energy>
    <i name="alphaZ">     -0.60288196 </i>
    <i name="ewald">   -236.34326638 </i>
    <i name="hartreedc">    -24.44715943 </i>
    <i name="XCdc">   -105.82432335 </i>
    <i name="pawpsdc">    782.04619038 </i>
    <i name="pawaedc">   -654.42173260 </i>
    <i name="eentropy">     -0.09052951 </i>
    <i name="bandstr">     14.27252891 </i>
    <i name="atom">    214.14321246 </i>
    <i name="e_fr_energy">    -11.26796147 </i>
    <i name="e_wo_entrp">    -11.17743196 </i>
    <i name="e_0_energy">    -11.22269671 </i>
   </energy>
  </scstep>
  <structure>
   <crystal>
    <varray name="basis" >
     <v>       7.09105799       0.00000000       0.00000000 </v>
     <v>       0.00000000       3.54552899       0.00000000 </v>
     <v>       0.00000000       0.00000000       3.54552899 </v>
    </varray>
    <i name="volume">     89.14010044 </i>
    <varray name="rec_basis" >
     <v>       0.14102268       0.00000000       0.00000000 </v>
     <v>       0.00000000       0.28204536       0.00000000 </v>
     <v>       0.00000000       0.00000000       0.28204536 </v>
    </varray>
   </crystal>
   <varray name="positions" >
    <v>       0.01539471       0.00376454       0.13883532 </v>
    <v>       0.46294269       0.18841452       0.79234035 </v>
    <v>       0.17376682       0.50701826       0.48250313 </v>
    <v>       0.84789580       0.30080267       0.58632121 </v>
   </varray>
  </structure>
  <varray name="forces" >
   <v>       0.95032596      -1.70838871      -2.89545906 </v>
   <v>       0.18250296      -0.00803257       0.31752158 </v>
   <v>       1.36152781       0.44963726       1.12382570 </v>
   <v>      -2.49536696       1.26845694       1.45345651 </v>
  </varray>
  <varray name="stress" >
   <v>     -54.41292556     -16.64685093      -7.95258398 </v>
   <v>     -16.64685093      81.30509886      26.10129480 </v>
   <v>      -7.95258398      26.10129480     211.41274508 </v>
  </varray>
  <energy>
   <i name="e_fr_energy">    -11.26796147 </i>
   <i name="e_wo_entrp">    -11.17743196 </i>
   <i name="e_0_energy">    -11.22269671 </i>
   <i name="kinetic">      2.63758338 </i>
   <i name="lattice kinetic">      0.00000000 </i>
   <i name="nosepot">     -0.49164604 </i>
   <i name="nosekinetic">      0.04321511 </i>
   <i name="total">     -9.07880902 </i>
  </energy>
  <time name="totalsc">    0.06    0.06</time>
 </calculation>
 <calculation>
  <scstep>
   <time name="diag">    0.00    0.00</time>
   <time name="diis">    0.01    0.01</time>
   <time name="orth">    0.00    0.00</time>
   <time name="total">    0.02    0.02</time>
   <energy>
    <i name="alphaZ">     -0.60288196 </i>
    <i name="ewald">   -236.73542386 </i>
    <i name="hartreedc">    -24.14063898 </i>
    <i name="XCdc">   -105.83476488 </i>
    <i name="pawpsdc">    804.09947921 </i>
    <i name="pawaedc">   -676.47710560 </i>
    <i name="eentropy">     -0.08321104 </i>
    <i name="bandstr">     14.38547524 </i>
    <i name="atom">    214.14321246 </i>
    <i name="e_fr_energy">    -11.24585940 </i>
    <i name="e_wo_entrp">    -11.16264837 </i>
    <i name="e_0_energy">    -11.20425388 </i>
   </energy>
  </scstep>
  <scstep>
   <time name="diag">    0.00    0.00</time>
   <time name="diis">    0.01    0.01</time>
   <time name="orth">    0.00    0.00</time>
   <time name="total">    0.02    0.02</time>
   <energy>
    <i name="alphaZ">     -0.60288196 </i>
    <i name="ewald">   -236.73542386 </i>
    <i name="hartreedc">    -24.14314750 </i>
    <i name="XCdc">   -105.83538933 </i>
    <i name="pawpsdc">    788.44861620 </i>
    <i name="pawaedc">   -660.82558828 </i>
    <i name="eentropy">     -0.08318899 </i>
    <i name="bandstr">     14.38786621 </i>
    <i name="atom">    214.14321246 </i>
    <i name="e_fr_energy">    -11.24592506 </i>
    <i name="e_wo_entrp">    -11.16273606 </i>
    <i name="e_0_energy">    -11.20433056 </i>
   </energy>
  </scstep>
  <structure>
   <crystal>
    <varray name="basis" >
     <v>       7.09105799       0.00000000       0.00000000 </v>
     <v>       0.00000000       3.54552899       0.00000000 </v>
     <v>       0.00000000       0.00000000       3.54552899 </v>
    </varray>
    <i name="volume">     89.14010044 </i>
    <varray name="rec_basis" >
     <v>       0.14102268       0.00000000       0.00000000 </v>
     <v>       0.00000000       0.28204536       0.00000000 </v>
     <v>       0.00000000       0.00000000       0.28204536 </v>
    </varray>
   </crystal>
   <varray name="positions" >
    <v>       0.01766503       0.00037137       0.13959550 </v>
    <v>       0.46665145       0.18769616       0.79550845 </v>
    <v>       0.17033286       0.52129047       0.48821773 </v>
    <v>       0.84535066       0.29064199       0.57667833 </v>
   </varray>
  </structure>
  <varray name="forces" >
   <v>       0.97721209      -1.28088764      -3.26285101 </v>
   <v>       0.04139041       0.05637847       0.21982781 </v>
   <v>       1.49729856      -0.04617675       1.38888709 </v>
   <v>      -2.51611698       1.27016232       1.65222865 </v>
  </varray>
  <varray name="stress" >
   <v>     -51.65574756     -22.05210581      -9.51019307 </v>
   <v>     -22.05210581      80.93758045      25.36200305 </v>
   <v>      -9.51019307      25.36200305     211.44186049 </v>
  </varray>
  <energy>
   <i name="e_fr_energy">    -11.24592506 </i>
   <i name="e_wo_entrp">    -11.16273606 </i>
   <i name="e_0_energy">    -11.20433056 </i>
   <i name="kinetic">      2.65018224 </i>
   <i name="lattice kinetic">      0.00000000 </i>
   <i name="nosepot">     -0.49619927 </i>
   <i name="nosekinetic">      0.01396936 </i>
   <i name="total">     -9.07797273 </i>
  </energy>
  <dos>
   <i name="efermi">      4.91301245 </i>
   <total>
    <array>
     <dimension dim="1">gridpoints</dimension>
     <dimension dim="2">spin</dimension>
     <field>energy</field>
     <field>total</field>
     <field>integrated</field>
     <set>
      <set comment="spin 1">
       <r>    -4.1574     0.0000     0.0000 </r>
       <r>    -4.1046     0.0000     0.0000 </r>
       <r>    -4.0518     0.0000     0.0000 </r>
       <r>    -3.9990     0.0124     0.0007 </r>
       <r>    -3.9462     0.0117     0.0013 </r>
       <r>    -3.8934     0.0228     0.0025 </r>
       <r>    -3.8407     0.0442     0.0048 </r>
       <r>    -3.7879     0.0858     0.0093 </r>
       <r>    -3.7351     0.1659     0.0181 </r>
       <r>    -3.6823     0.3187     0.0349 </r>
       <r>    -3.6295     0.6050     0.0669 </r>
       <r>    -3.5767     1.1228     0.1261 </r>
       <r>    -3.5239     1.9988     0.2316 </r>
       <r>    -3.4711     3.3084     0.4063 </r>
       <r>    -3.4184     4.8672     0.6632 </r>
       <r>    -3.3656     6.0477     0.9825 </r>
       <r>    -3.3128     6.1163     1.3053 </r>
       <r>    -3.2600     5.0240     1.5705 </r>
       <r>    -3.2072     3.4681     1.7536 </r>
       <r>    -3.1544     2.1165     1.8653 </r>
       <r>    -3.1016     1.1960     1.9285 </r>
       <r>    -3.0488     0.6466     1.9626 </r>
       <r>    -2.9961     0.3412     1.9806 </r>
       <r>    -2.9433     0.1778     1.9900 </r>
       <r>    -2.8905     0.0920     1.9948 </r>
       <r>    -2.8377     0.0474     1.9973 </r>
       <r>    -2.7849     0.0244     1.9986 </r>
       <r>    -2.7321     0.0126     1.9993 </r>
       <r>    -2.6793     0.0000     2.0000 </r>
       <r>    -2.6265     0.0000     2.0000 </r>
       <r>    -2.5737     0.0000     2.0000 </r>
       <r>    -2.5210     0.0000     2.0000 </r>
       <r>    -2.4682     0.0000     2.0000 </r>
       <r>    -2.4154     0.0000     2.0000 </r>
       <r>    -2.3626     0.0000     2.0000 </r>
       <r>    -2.3098     0.0000     2.0000 </r>
       <r>    -2.2570     0.0000     2.0000 </r>
       <r>    -2.2042     0.0000     2.0000 </r>
       <r>    -2.1514     0.0000     2.0000 </r>
       <r>    -2.0987     0.0000     2.0000 </r>
       <r>    -2.0459     0.0000     2.0000 </r>
       <r>    -1.9931     0.0000     2.0000 </r>
       <r>    -1.9403     0.0000     2.0000 </r>
       <r>    -1.8875     0.0000     2.0000 </r>
       <r>    -1.8347     0.0000     2.0000 </r>
       <r>    -1.7819     0.0000     2.0000 </r>
       <r>    -1.7291     0.0000     2.0000 </r>
       <r>    -1.6764     0.0000     2.0000 </r>
       <r>    -1.6236     0.0000     2.0000 </r>
       <r>    -1.5708     0.0052     2.0003 </r>
       <r>    -1.5180     0.0079     2.0007 </r>
       <r>    -1.4652     0.0124     2.0013 </r>
       <r>    -1.4124     0.0241     2.0026 </r>
       <r>    -1.3596     0.0468     2.0051 </r>
       <r>    -1.3068     0.0907     2.0099 </r>
       <r>    -1.2541     0.1752     2.0191 </r>
       <r>    -1.2013     0.3364     2.0369 </r>
       <r>    -1.1485     0.6375     2.0705 </r>
       <r>    -1.0957     1.1798     2.1328 </r>
       <r>    -1.0429     2.0897     2.2431 </r>
       <r>    -0.9901     3.4297     2.4242 </r>
       <r>    -0.9373     4.9824     2.6872 </r>
       <r>    -0.8845     6.0923     3.0088 </r>
       <r>    -0.8318     6.0581     3.3286 </r>
       <r>    -0.7790     4.9042     3.5874 </r>
       <r>    -0.7262     3.3499     3.7643 </r>
       <r>    -0.6734     2.0308     3.8715 </r>
       <r>    -0.6206     1.1431     3.9318 </r>
       <r>    -0.5678     0.6167     3.9644 </r>
       <r>    -0.5150     0.3251     3.9815 </r>
       <r>    -0.4622     0.1693     3.9905 </r>
       <r>    -0.4094     0.0876     3.9951 </r>
       <r>    -0.3567     0.0452     3.9975 </r>
       <r>    -0.3039     0.0232     3.9987 </r>
       <r>    -0.2511     0.0033     3.9998 </r>
       <r>    -0.1983     0.0000     4.0000 </r>
       <r>    -0.1455     0.0000     4.0000 </r>
       <r>    -0.0927     0.0000     4.0000 </r>
       <r>    -0.0399     0.0000     4.0000 </r>
       <r>     0.0129     0.0000     4.0000 </r>
       <r>     0.0656     0.0000     4.0000 </r>
       <r>     0.1184     0.0000     4.0000 </r>
       <r>     0.1712     0.0000     4.0000 </r>
       <r>     0.2240     0.0000     4.0000 </r>
       <r>     0.2768     0.0000     4.0000 </r>
       <r>     0.3296     0.0000     4.0000 </r>
       <r>     0.3824     0.0000     4.0000 </r>
       <r>     0.4352     0.0000     4.0000 </r>
       <r>     0.4879     0.0000     4.0000 </r>
       <r>     0.5407     0.0000     4.0000 </r>
       <r>     0.5935     0.0000     4.0000 </r>
       <r>     0.6463     0.0000     4.0000 </r>
       <r>     0.6991     0.0000     4.0000 </r>
       <r>     0.7519     0.0000     4.0000 </r>
       <r>     0.8047     0.0000     4.0000 </r>
       <r>     0.8575     0.0019     4.0001 </r>
       <r>     0.9102     0.0075     4.0005 </r>
       <r>     0.9630     0.0118     4.0011 </r>
       <r>     1.0158     0.0201     4.0022 </r>
       <r>     1.0686     0.0390     4.0042 </r>
       <r>     1.1214     0.0756     4.0082 </r>
       <r>     1.1742     0.1462     4.0159 </r>
       <r>     1.2270     0.2810     4.0308 </r>
       <r>     1.2798     0.5340     4.0590 </r>
       <r>     1.3326     0.9931     4.1114 </r>
       <r>     1.3853     1.7757     4.2051 </r>
       <r>     1.4381     2.9650     4.3616 </r>
       <r>     1.4909     4.4389     4.5960 </r>
       <r>     1.5437     5.6942     4.8966 </r>
       <r>     1.5965     6.0528     5.2161 </r>
       <r>     1.6493     5.2946     5.4956 </r>
       <r>     1.7021     3.8921     5.7010 </r>
       <r>     1.7549     2.5025     5.8331 </r>
       <r>     1.8076     1.4670     5.9106 </r>
       <r>     1.8604     0.8187     5.9538 </r>
       <r>     1.9132     0.4517     5.9776 </r>
       <r>     1.9660     0.2668     5.9917 </r>
       <r>     2.0188     0.2028     6.0024 </r>
       <r>     2.0716     0.2223     6.0141 </r>
       <r>     2.1244     0.3400     6.0321 </r>
       <r>     2.1772     0.5995     6.0640 </r>
       <r>     2.2299     1.0910     6.1220 </r>
       <r>     2.2827     1.9385     6.2245 </r>
       <r>     2.3355     3.2266     6.3948 </r>
       <r>     2.3883     4.8386     6.6503 </r>
       <r>     2.4411     6.3292     6.9844 </r>
       <r>     2.4939     7.1697     7.3628 </r>
       <r>     2.5467     7.3042     7.7484 </r>
       <r>     2.5995     7.2359     8.1304 </r>
       <r>     2.6522     7.3630     8.5191 </r>
       <r>     2.7050     7.4073     8.9101 </r>
       <r>     2.7578     6.7629     9.2671 </r>
       <r>     2.8106     5.3321     9.5485 </r>
       <r>     2.8634     3.6402     9.7407 </r>
       <r>     2.9162     2.2219     9.8580 </r>
       <r>     2.9690     1.2589     9.9244 </r>
       <r>     3.0218     0.6821     9.9604 </r>
       <r>     3.0745     0.3555     9.9798 </r>
       <r>     3.1273     0.1831     9.9897 </r>
       <r>     3.1801     0.0931     9.9948 </r>
       <r>     3.2329     0.0481     9.9973 </r>
       <r>     3.2857     0.0247     9.9986 </r>
       <r>     3.3385     0.0048     9.9997 </r>
       <r>     3.3913     0.0000    10.0000 </r>
       <r>     3.4441     0.0000    10.0000 </r>
       <r>     3.4969     0.0000    10.0000 </r>
       <r>     3.5496     0.0000    10.0000 </r>
       <r>     3.6024     0.0000    10.0000 </r>
       <r>     3.6552     0.0000    10.0000 </r>
       <r>     3.7080     0.0000    10.0000 </r>
       <r>     3.7608     0.0000    10.0000 </r>
       <r>     3.8136     0.0000    10.0000 </r>
       <r>     3.8664     0.0000    10.0000 </r>
       <r>     3.9192     0.0028    10.0001 </r>
       <r>     3.9719     0.0044    10.0004 </r>
       <r>     4.0247     0.0068    10.0007 </r>
       <r>     4.0775     0.0131    10.0014 </r>
       <r>     4.1303     0.0306    10.0030 </r>
       <r>     4.1831     0.0542    10.0059 </r>
       <r>     4.2359     0.1046    10.0114 </r>
       <r>     4.2887     0.2001    10.0220 </r>
       <r>     4.3415     0.3796    10.0420 </r>
       <r>     4.3942     0.6930    10.0786 </r>
       <r>     4.4470     1.2115    10.1426 </r>
       <r>     4.4998     1.9575    10.2459 </r>
       <r>     4.5526     2.8539    10.3965 </r>
       <r>     4.6054     3.7160    10.5927 </r>
       <r>     4.6582     4.3722    10.8235 </r>
       <r>     4.7110     4.7959    11.0767 </r>
       <r>     4.7638     4.9734    11.3392 </r>
       <r>     4.8165     4.8267    11.5940 </r>
       <r>     4.8693     4.3928    11.8259 </r>
       <r>     4.9221     3.9608    12.0350 </r>
       <r>     4.9749     3.7832    12.2347 </r>
       <r>     5.0277     3.8477    12.4378 </r>
       <r>     5.0805     4.0374    12.6509 </r>
       <r>     5.1333     4.2817    12.8769 </r>
       <r>     5.1861     4.4853    13.1137 </r>
       <r>     5.2388     4.4808    13.3504 </r>
       <r>     5.2916     4.0550    13.5648 </r>
       <r>     5.3444     3.2035    13.7339 </r>
       <r>     5.3972     2.2129    13.8507 </r>
       <r>     5.4500     1.4019    13.9251 </r>
       <r>     5.5028     0.9062    13.9730 </r>
       <r>     5.5556     0.7036    14.0101 </r>
       <r>     5.6084     0.7542    14.0499 </r>
       <r>     5.6612     1.0275    14.1044 </r>
       <r>     5.7139     1.4744    14.1822 </r>
       <r>     5.7667     1.9613    14.2860 </r>
       <r>     5.8195     2.3637    14.4108 </r>
       <r>     5.8723     2.7308    14.5549 </r>
       <r>     5.9251     3.2743    14.7282 </r>
       <r>     5.9779     4.0498    14.9420 </r>
       <r>     6.0307     4.6951    15.1898 </r>
       <r>     6.0835     4.6967    15.4377 </r>
       <r>     6.1362     3.9333    15.6454 </r>
       <r>     6.1890     2.7965    15.7930 </r>
       <r>     6.2418     1.7522    15.8855 </r>
       <r>     6.2946     1.0085    15.9387 </r>
       <r>     6.3474     0.5514    15.9678 </r>
       <r>     6.4002     0.2928    15.9833 </r>
       <r>     6.4530     0.1514    15.9915 </r>
       <r>     6.5058     0.0785    15.9956 </r>
       <r>     6.5585     0.0405    15.9977 </r>
       <r>     6.6113     0.0209    15.9988 </r>
       <r>     6.6641     0.0053    15.9997 </r>
       <r>     6.7169     0.0020    16.0001 </r>
       <r>     6.7697     0.0019    16.0002 </r>
       <r>     6.8225     0.0090    16.0007 </r>
       <r>     6.8753     0.0122    16.0013 </r>
       <r>     6.9281     0.0236    16.0026 </r>
       <r>     6.9808     0.0489    16.0052 </r>
       <r>     7.0336     0.0938    16.0101 </r>
       <r>     7.0864     0.1783    16.0195 </r>
       <r>     7.1392     0.3414    16.0375 </r>
       <r>     7.1920     0.6382    16.0712 </r>
       <r>     7.2448     1.1494    16.1319 </r>
       <r>     7.2976     1.9565    16.2352 </r>
       <r>     7.3504     3.0509    16.3962 </r>
       <r>     7.4031     4.2309    16.6196 </r>
       <r>     7.4559     5.1558    16.8917 </r>
       <r>     7.5087     5.5774    17.1862 </r>
       <r>     7.5615     5.5763    17.4805 </r>
       <r>     7.6143     5.4478    17.7681 </r>
       <r>     7.6671     5.3640    18.0513 </r>
       <r>     7.7199     5.3169    18.3319 </r>
       <r>     7.7727     5.2716    18.6102 </r>
       <r>     7.8255     5.1617    18.8827 </r>
       <r>     7.8782     4.8356    19.1379 </r>
       <r>     7.9310     4.2674    19.3632 </r>
       <r>     7.9838     3.6040    19.5535 </r>
       <r>     8.0366     2.9310    19.7084 </r>
       <r>     8.0894     2.2425    19.8268 </r>
       <r>     8.1422     1.6054    19.9120 </r>
       <r>     8.1950     1.1755    19.9740 </r>
       <r>     8.2478     1.0464    20.0293 </r>
       <r>     8.3005     1.2732    20.0967 </r>
       <r>     8.3533     1.9156    20.1980 </r>
       <r>     8.4061     2.9978    20.3563 </r>
       <r>     8.4589     4.3419    20.5858 </r>
       <r>     8.5117     5.4656    20.8745 </r>
       <r>     8.5645     5.8048    21.1810 </r>
       <r>     8.6173     5.2000    21.4555 </r>
       <r>     8.6701     3.9932    21.6665 </r>
       <r>     8.7228     2.6924    21.8086 </r>
       <r>     8.7756     1.6387    21.8951 </r>
       <r>     8.8284     0.9289    21.9441 </r>
       <r>     8.8812     0.5039    21.9707 </r>
       <r>     8.9340     0.2665    21.9848 </r>
       <r>     8.9868     0.1390    21.9922 </r>
       <r>     9.0396     0.0720    21.9960 </r>
       <r>     9.0924     0.0372    21.9979 </r>
       <r>     9.1451     0.0141    21.9992 </r>
       <r>     9.1979     0.0051    21.9997 </r>
       <r>     9.2507     0.0000    22.0000 </r>
       <r>     9.3035     0.0000    22.0000 </r>
       <r>     9.3563     0.0000    22.0000 </r>
       <r>     9.4091     0.0000    22.0000 </r>
       <r>     9.4619     0.0000    22.0000 </r>
       <r>     9.5147     0.0000    22.0000 </r>
       <r>     9.5674     0.0000    22.0000 </r>
       <r>     9.6202     0.0000    22.0000 </r>
       <r>     9.6730     0.0000    22.0000 </r>
       <r>     9.7258     0.0000    22.0000 </r>
       <r>     9.7786     0.0000    22.0000 </r>
       <r>     9.8314     0.0026    22.0001 </r>
       <r>     9.8842     0.0046    22.0004 </r>
       <r>     9.9370     0.0068    22.0007 </r>
       <r>     9.9898     0.0156    22.0016 </r>
       <r>    10.0425     0.0280    22.0030 </r>
       <r>    10.0953     0.0542    22.0059 </r>
       <r>    10.1481     0.1046    22.0114 </r>
       <r>    10.2009     0.2019    22.0221 </r>
       <r>    10.2537     0.3795    22.0421 </r>
       <r>    10.3065     0.6975    22.0789 </r>
       <r>    10.3593     1.2227    22.1435 </r>
       <r>    10.4121     1.9853    22.2483 </r>
       <r>    10.4648     2.8870    22.4007 </r>
       <r>    10.5176     3.6680    22.5943 </r>
       <r>    10.5704     4.0597    22.8086 </r>
       <r>    10.6232     3.9803    23.0187 </r>
       <r>    10.6760     3.5399    23.2056 </r>
       <r>    10.7288     2.9543    23.3615 </r>
       <r>    10.7816     2.4729    23.4921 </r>
       <r>    10.8344     2.2190    23.6092 </r>
       <r>    10.8871     2.0733    23.7186 </r>
       <r>    10.9399     1.8148    23.8144 </r>
       <r>    10.9927     1.3865    23.8876 </r>
       <r>    11.0455     0.9218    23.9363 </r>
       <r>    11.0983     0.5515    23.9654 </r>
       <r>    11.1511     0.3065    23.9818 </r>
       <r>    11.2039     0.1625    23.9906 </r>
       <r>    11.2567     0.0856    23.9951 </r>
       <r>    11.3094     0.0424    23.9976 </r>
       <r>    11.3622     0.0219    23.9988 </r>
       <r>    11.4150     0.0113    23.9994 </r>
       <r>    11.4678     0.0058    23.9997 </r>
       <r>    11.5206     0.0000    24.0000 </r>
       <r>    11.5734     0.0000    24.0000 </r>
       <r>    11.6262     0.0000    24.0000 </r>
       <r>    11.6790     0.0000    24.0000 </r>
      </set>
     </set>
    </array>
   </total>
  </dos>
  <time name="totalsc">    0.06    0.06</time>
 </calculation>
 <calculation>
  <scstep>
   <time name="diag">    0.00    0.00</time>
   <time name="diis">    0.01    0.01</time>
   <time name="orth">    0.00    0.00</time>
   <time name="total">    0.02    0.02</time>
   <energy>
    <i name="alphaZ">     -0.60288196 </i>
    <i name="ewald">   -237.27075943 </i>
    <i name="hartreedc">    -23.71040500 </i>
    <i name="XCdc">   -105.85232507 </i>
    <i name="pawpsdc">    754.12890751 </i>
    <i name="pawaedc">   -626.50502635 </i>
    <i name="eentropy">     -0.07476522 </i>
    <i name="bandstr">     14.51978820 </i>
    <i name="atom">    214.14321246 </i>
    <i name="e_fr_energy">    -11.22425485 </i>
    <i name="e_wo_entrp">    -11.14948963 </i>
    <i name="e_0_energy">    -11.18687224 </i>
   </energy>
  </scstep>
  <scstep>
   <time name="diag">    0.00    0.00</time>
   <time name="diis">    0.01    0.01</time>
   <time name="orth">    0.00    0.00</time>
   <time name="total">    0.02    0.02</time>
   <energy>
    <i name="alphaZ">     -0.60288196 </i>
    <i name="ewald">   -237.27075943 </i>
    <i name="hartreedc">    -23.72046904 </i>
    <i name="XCdc">   -105.85024148 </i>
    <i name="pawpsdc">    757.44561989 </i>
    <i name="pawaedc">   -629.82246504 </i>
    <i name="eentropy">     -0.07467989 </i>
    <i name="bandstr">     14.52836735 </i>
    <i name="atom">    214.14321246 </i>
    <i name="e_fr_energy">    -11.22429713 </i>
    <i name="e_wo_entrp">    -11.14961724 </i>
    <i name="e_0_energy">    -11.18695719 </i>
   </energy>
  </scstep>
  <structure>
   <crystal>
    <varray name="basis" >
     <v>       7.09105799       0.00000000       0.00000000 </v>
     <v>       0.00000000       3.54552899       0.00000000 </v>
     <v>       0.00000000       0.00000000       3.54552899 </v>
    </varray>
    <i name="volume">     89.14010044 </i>
    <varray name="rec_basis" >
     <v>       0.14102268       0.00000000       0.00000000 </v>
     <v>       0.00000000       0.28204536       0.00000000 </v>
     <v>       0.00000000       0.00000000       0.28204536 </v>
    </varray>
   </crystal>
   <varray name="positions" >
    <v>       0.02014349       0.99644454       0.13903997 </v>
    <v>       0.47038581       0.18699732       0.79878034 </v>
    <v>       0.16718572       0.53561030       0.49452068 </v>
    <v>       0.84228499       0.28094784       0.56765902 </v>
   </varray>
  </structure>
  <varray name="forces" >
   <v>       0.92303628      -0.76114428      -3.56408102 </v>
   <v>      -0.09367342       0.09441432       0.15029230 </v>
   <v>       1.58907591      -0.58518738       1.67144590 </v>
   <v>      -2.41568035       1.25264249       1.74001458 </v>
  </varray>
  <varray name="stress" >
   <v>     -51.01760679     -27.54659023      -9.23272543 </v>
   <v>     -27.54659023      81.15858639      22.24077341 </v>
   <v>      -9.23272543      22.24077341     210.79389016 </v>
  </varray>
  <energy>
   <i name="e_fr_energy">    -11.22429713 </i>
   <i name="e_wo_entrp">    -11.14961724 </i>
   <i name="e_0_energy">    -11.18695719 </i>
   <i name="kinetic">      2.64443206 </i>
   <i name="lattice kinetic">      0.00000000 </i>
   <i name="nosepot">     -0.49824269 </i>
   <i name="nosekinetic">      0.00080476 </i>
   <i name="total">     -9.07730300 </i>
  </energy>
  <time name="totalsc">    0.06    0.06</time>
 </calculation>
 <calculation>
  <scstep>
   <time name="diag">    0.00    0.00</time>
   <time name="diis">    0.01    0.01</time>
   <time name="orth">    0.00    0.00</time>
   <time name="total">    0.02    0.02</time>
   <energy>
    <i name="alphaZ">     -0.60288196 </i>
    <i name="ewald">   -237.93948189 </i>
    <i name="hartreedc">    -23.18039593 </i>
    <i name="XCdc">   -105.86129671 </i>
    <i name="pawpsdc">    754.56535983 </i>
    <i name="pawaedc">   -626.94538174 </i>
    <i name="eentropy">     -0.06618866 </i>
    <i name="bandstr">     14.67977776 </i>
    <i name="atom">    214.14321246 </i>
    <i name="e_fr_energy">    -11.20727683 </i>
    <i name="e_wo_entrp">    -11.14108817 </i>
    <i name="e_0_energy">    -11.17418250 </i>
   </energy>
  </scstep>
  <scstep>
   <time name="diag">    0.00    0.00</time>
   <time name="diis">    0.01    0.01</time>
   <time name="orth">    0.00    0.00</time>
   <time name="total">    0.02    0.02</time>
   <energy>
    <i name="e_fr_energy">    -11.20724168 </i>
    <i name="e_wo_entrp">    -11.14091301 </i>
    <i name="e_0_energy">    -11.17407735 </i>
   </energy>
  </scstep>
  <scstep>
   <time name="diag">    0.00    0.00</time>
   <time name="diis">    0.01    0.01</time>
   <time name="orth">    0.00    0.00</time>
   <time name="total">    0.01    0.01</time>
   <energy>
    <i name="alphaZ">     -0.60288196 </i>
    <i name="ewald">   -237.93948189 </i>
    <i name="hartreedc">    -23.16624194 </i>
    <i name="XCdc">   -105.86595865 </i>
    <i name="pawpsdc">    741.87342023 </i>
    <i name="pawaedc">   -614.25123426 </i>
    <i name="eentropy">     -0.06634109 </i>
    <i name="bandstr">     14.66824245 </i>
    <i name="atom">    214.14321246 </i>
    <i name="e_fr_energy">    -11.20726464 </i>
    <i name="e_wo_entrp">    -11.14092355 </i>
    <i name="e_0_energy">    -11.17409410 </i>
   </energy>
  </scstep>
  <structure>
   <crystal>
    <varray name="basis" >
     <v>       7.09105799       0.00000000       0.00000000 </v>
     <v>       0.00000000       3.54552899       0.00000000 </v>
     <v>       0.00000000       0.00000000       3.54552899 </v>
    </varray>
    <i name="volume">     89.14010044 </i>
    <varray name="rec_basis" >
     <v>       0.14102268       0.00000000       0.00000000 </v>
     <v>       0.00000000       0.28204536       0.00000000 </v>
     <v>       0.00000000       0.00000000       0.28204536 </v>
    </varray>
   </crystal>
   <varray name="positions" >
    <v>       0.02281086       0.99220601       0.13704535 </v>
    <v>       0.47410528       0.18633573       0.80211677 </v>
    <v>       0.16435566       0.54970977       0.50150559 </v>
    <v>       0.83872821       0.27174848       0.55933229 </v>
   </varray>
  </structure>
  <varray name="forces" >
   <v>       0.77831269      -0.18732346      -3.78044074 </v>
   <v>      -0.22726593       0.10944694       0.10705066 </v>
   <v>       1.64243340      -1.12967812       1.95727779 </v>
   <v>      -2.19176791       1.20888650       1.71538497 </v>
  </varray>
  <varray name="stress" >
   <v>     -51.43082306     -32.13182336      -7.37361544 </v>
   <v>     -32.13182336      81.81964038      17.25496177 </v>
   <v>      -7.37361544      17.25496177     209.53734151 </v>
  </varray>
  <energy>
   <i name="e_fr_energy">    -11.20726464 </i>
   <i name="e_wo_entrp">    -11.14092355 </i>
   <i name="e_0_energy">    -11.17409410 </i>
   <i name="kinetic">      2.62425114 </i>
   <i name="lattice kinetic">      0.00000000 </i>
   <i name="nosepot">     -0.49778260 </i>
   <i name="nosekinetic">      0.00371433 </i>
   <i name="total">     -9.07708177 </i>
  </energy>
  <time name="totalsc">    0.08    0.08</time>
 </calculation>
 <calculation>
  <scstep>
   <time name="diag">    0.00    0.00</time>
   <time name="diis">    0.01    0.01</time>
   <time name="orth">    0.00    0.00</time>
   <time name="total">    0.02    0.02</time>
   <energy>
    <i name="alphaZ">     -0.60288196 </i>
    <i name="ewald">   -238.72382331 </i>
    <i name="hartreedc">    -22.48060818 </i>
    <i name="XCdc">   -105.88880940 </i>
    <i name="pawpsdc">    739.29841748 </i>
    <i name="pawaedc">   -611.67423248 </i>
    <i name="eentropy">     -0.05987673 </i>
    <i name="bandstr">     14.79050232 </i>
    <i name="atom">    214.14321246 </i>
    <i name="e_fr_energy">    -11.19809982 </i>
    <i name="e_wo_entrp">    -11.13822309 </i>
    <i name="e_0_energy">    -11.16816145 </i>
   </energy>
  </scstep>
  <scstep>
   <time name="diag">    0.00    0.00</time>
   <time name="diis">    0.01    0.01</time>
   <time name="orth">    0.00    0.00</time>
   <time name="total">    0.02    0.02</time>
   <energy>
    <i name="alphaZ">     -0.60288196 </i>
    <i name="ewald">   -238.72382331 </i>
    <i name="hartreedc">    -22.49395209 </i>
    <i name="XCdc">   -105.88606537 </i>
    <i name="pawpsdc">    761.85750215 </i>
    <i name="pawaedc">   -634.23411297 </i>
    <i name="eentropy">     -0.05980969 </i>
    <i name="bandstr">     14.80182365 </i>
    <i name="atom">    214.14321246 </i>
    <i name="e_fr_energy">    -11.19810713 </i>
    <i name="e_wo_entrp">    -11.13829745 </i>
    <i name="e_0_energy">    -11.16820229 </i>
   </energy>
  </scstep>
  <structure>
   <crystal>
    <varray name="basis" >
     <v>       7.09105799       0.00000000       0.00000000 </v>
     <v>       0.00000000       3.54552899       0.00000000 </v>
     <v>       0.00000000       0.00000000       3.54552899 </v>
    </varray>
    <i name="volume">     89.14010044 </i>
    <varray name="rec_basis" >
     <v>       0.14102268       0.00000000       0.00000000 </v>
     <v>       0.00000000       0.28204536       0.00000000 </v>
     <v>       0.00000000       0.00000000       0.28204536 </v>
    </varray>
   </crystal>
   <varray name="positions" >
    <v>       0.02562860       0.98790198       0.13353220 </v>
    <v>       0.47777000       0.18571970       0.80548846 </v>
    <v>       0.16186319       0.56332025       0.50926262 </v>
    <v>       0.83473822       0.26305806       0.55171673 </v>
   </varray>
  </structure>
  <varray name="forces" >
   <v>       0.56064690       0.38958661      -3.89443269 </v>
   <v>      -0.37091434       0.10686854       0.08848786 </v>
   <v>       1.65870404      -1.63245884       2.21609051 </v>
   <v>      -1.84974937       1.13523795       1.59000343 </v>
  </varray>
  <varray name="stress" >
   <v>     -52.97069765     -34.85948180      -4.78390322 </v>
   <v>     -34.85948180      82.64087952      11.14793789 </v>
   <v>      -4.78390322      11.14793789     207.04429941 </v>
  </varray>
  <energy>
   <i name="e_fr_energy">    -11.19810713 </i>
   <i name="e_wo_entrp">    -11.13829745 </i>
   <i name="e_0_energy">    -11.16820229 </i>
   <i name="kinetic">      2.59383557 </i>
   <i name="lattice kinetic">      0.00000000 </i>
   <i name="nosepot">     -0.49484107 </i>
   <i name="nosekinetic">      0.02228012 </i>
   <i name="total">     -9.07683252 </i>
  </energy>
  <time name="totalsc">    0.06    0.06</time>
 </calculation>
 <calculation>
  <scstep>
   <time name="diag">    0.00    0.00</time>
   <time name="diis">    0.01    0.01</time>
   <time name="orth">    0.00    0.00</time>
   <time name="total">    0.02    0.02</time>
   <energy>
    <i name="alphaZ">     -0.60288196 </i>
    <i name="ewald">   -239.59842833 </i>
    <i name="hartreedc">    -21.72324936 </i>
    <i name="XCdc">   -105.90856965 </i>
    <i name="pawpsdc">    757.16672360 </i>
    <i name="pawaedc">   -629.53907104 </i>
    <i name="eentropy">     -0.05617343 </i>
    <i name="bandstr">     14.91829828 </i>
    <i name="atom">    214.14321246 </i>
    <i name="e_fr_energy">    -11.20013943 </i>
    <i name="e_wo_entrp">    -11.14396600 </i>
    <i name="e_0_energy">    -11.17205271 </i>
   </energy>
  </scstep>
  <scstep>
   <time name="diag">    0.00    0.00</time>
   <time name="diis">    0.01    0.01</time>
   <time name="orth">    0.00    0.00</time>
   <time name="total">    0.02    0.02</time>
   <energy>
    <i name="alphaZ">     -0.60288196 </i>
    <i name="ewald">   -239.59842833 </i>
    <i name="hartreedc">    -21.72802423 </i>
    <i name="XCdc">   -105.90729684 </i>
    <i name="pawpsdc">    777.16543723 </i>
    <i name="pawaedc">   -649.53902709 </i>
    <i name="eentropy">     -0.05631337 </i>
    <i name="bandstr">     14.92312030 </i>
    <i name="atom">    214.14321246 </i>
    <i name="e_fr_energy">    -11.20020182 </i>
    <i name="e_wo_entrp">    -11.14388845 </i>
    <i name="e_0_energy">    -11.17204513 </i>
   </energy>
  </scstep>
  <structure>
   <crystal>
    <varray name="basis" >
     <v>       7.09105799       0.00000000       0.00000000 </v>
     <v>       0.00000000       3.54552899       0.00000000 </v>
     <v>       0.00000000       0.00000000       3.54552899 </v>
    </varray>
    <i name="volume">     89.14010044 </i>
    <varray name="rec_basis" >
     <v>       0.14102268       0.00000000       0.00000000 </v>
     <v>       0.00000000       0.28204536       0.00000000 </v>
     <v>       0.00000000       0.00000000       0.28204536 </v>
    </varray>
   </crystal>
   <varray name="positions" >
    <v>       0.02854275       0.98377984       0.12847291 </v>
    <v>       0.48133881       0.18515032       0.80887606 </v>
    <v>       0.15971893       0.57619477       0.51786586 </v>
    <v>       0.83039952       0.25487507       0.54478518 </v>
   </varray>
  </structure>
  <varray name="forces" >
   <v>       0.30769144       0.91189919      -3.87805187 </v>
   <v>      -0.53009467       0.09355245       0.09146280 </v>
   <v>       1.63825848      -2.04159779       2.39774761 </v>
   <v>      -1.41826306       1.03870467       1.38726456 </v>
  </varray>
  <varray name="stress" >
   <v>     -55.96590059     -35.55461461      -2.31531768 </v>
   <v>     -35.55461461      83.42670243       4.84234911 </v>
   <v>      -2.31531768       4.84234911     203.84802313 </v>
  </varray>
  <energy>
   <i name="e_fr_energy">    -11.20020182 </i>
   <i name="e_wo_entrp">    -11.14388845 </i>
   <i name="e_0_energy">    -11.17204513 </i>
   <i name="kinetic">      2.55730249 </i>
   <i name="lattice kinetic">      0.00000000 </i>
   <i name="nosepot">     -0.48945132 </i>
   <i name="nosekinetic">      0.05582444 </i>
   <i name="total">     -9.07652622 </i>
  </energy>
  <time name="totalsc">    0.06    0.06</time>
 </calculation>
 <calculation>
  <scstep>
   <time name="diag">    0.00    0.00</time>
   <time name="diis">    0.01    0.01</time>
   <time name="orth">    0.00    0.00</time>
   <time name="total">    0.02    0.02</time>
   <energy>
    <i name="alphaZ">     -0.60288196 </i>
    <i name="ewald">   -240.52933860 </i>
    <i name="hartreedc">    -20.90150854 </i>
    <i name="XCdc">   -105.92850534 </i>
    <i name="pawpsdc">    806.39232756 </i>
    <i name="pawaedc">   -678.76292320 </i>
    <i name="eentropy">     -0.05674489 </i>
    <i name="bandstr">     15.03139686 </i>
    <i name="atom">    214.14321246 </i>
    <i name="e_fr_energy">    -11.21496566 </i>
    <i name="e_wo_entrp">    -11.15822077 </i>
    <i name="e_0_energy">    -11.18659321 </i>
   </energy>
  </scstep>
  <scstep>
   <time name="diag">    0.00    0.00</time>
   <time name="diis">    0.01    0.01</time>
   <time name="orth">    0.00    0.00</time>
   <time name="total">    0.02    0.02</time>
   <energy>
    <i name="alphaZ">     -0.60288196 </i>
    <i name="ewald">   -240.52933860 </i>
    <i name="hartreedc">    -20.90479587 </i>
    <i name="XCdc">   -105.92889500 </i>
    <i name="pawpsdc">    790.67478470 </i>
    <i name="pawaedc">   -663.04477949 </i>
    <i name="eentropy">     -0.05674629 </i>
    <i name="bandstr">     15.03442659 </i>
    <i name="atom">    214.14321246 </i>
    <i name="e_fr_energy">    -11.21501346 </i>
    <i name="e_wo_entrp">    -11.15826717 </i>
    <i name="e_0_energy">    -11.18664031 </i>
   </energy>
  </scstep>
  <structure>
   <crystal>
    <varray name="basis" >
     <v>       7.09105799       0.00000000       0.00000000 </v>
     <v>       0.00000000       3.54552899       0.00000000 </v>
     <v>       0.00000000       0.00000000       3.54552899 </v>
    </varray>
    <i name="volume">     89.14010044 </i>
    <varray name="rec_basis" >
     <v>       0.14102268       0.00000000       0.00000000 </v>
     <v>       0.00000000       0.28204536       0.00000000 </v>
     <v>       0.00000000       0.00000000       0.28204536 </v>
    </varray>
   </crystal>
   <varray name="positions" >
    <v>       0.03149194       0.98006163       0.12190304 </v>
    <v>       0.48476842       0.18462350       0.81226934 </v>
    <v>       0.15792351       0.58813052       0.52735289 </v>
    <v>       0.82581614       0.24718434       0.53847475 </v>
   </varray>
  </structure>
  <varray name="forces" >
   <v>       0.05932757       1.33850043      -3.70022835 </v>
   <v>      -0.70485507       0.07356773       0.11965917 </v>
   <v>       1.57892398      -2.33796073       2.44734233 </v>
   <v>      -0.93487132       0.92821527       1.13090120 </v>
  </varray>
  <varray name="stress" >
   <v>     -60.68668818     -34.00916421      -0.94736513 </v>
   <v>     -34.00916421      84.46188816      -0.37025566 </v>
   <v>      -0.94736513      -0.37025566     199.82037191 </v>
  </varray>
  <energy>
   <i name="e_fr_energy">    -11.21501346 </i>
   <i name="e_wo_entrp">    -11.15826717 </i>
   <i name="e_0_energy">    -11.18664031 </i>
   <i name="kinetic">      2.51664862 </i>
   <i name="lattice kinetic">      0.00000000 </i>
   <i name="nosepot">     -0.48165324 </i>
   <i name="nosekinetic">      0.10353338 </i>
   <i name="total">     -9.07648470 </i>
  </energy>
  <dos>
   <i name="efermi">      4.91298478 </i>
   <total>
    <array>
     <dimension dim="1">gridpoints</dimension>
     <dimension dim="2">spin</dimension>
     <field>energy</field>
     <field>total</field>
     <field>integrated</field>
     <set>
      <set comment="spin 1">
       <r>    -3.9782     0.0000     0.0000 </r>
       <r>    -3.9261     0.0000     0.0000 </r>
       <r>    -3.8740     0.0000     0.0000 </r>
       <r>    -3.8219     0.0120     0.0006 </r>
       <r>    -3.7698     0.0112     0.0012 </r>
       <r>    -3.7177     0.0216     0.0023 </r>
       <r>    -3.6656     0.0416     0.0045 </r>
       <r>    -3.6135     0.0799     0.0087 </r>
       <r>    -3.5614     0.1532     0.0166 </r>
       <r>    -3.5093     0.2922     0.0319 </r>
       <r>    -3.4572     0.5512     0.0606 </r>
       <r>    -3.4052     1.0193     0.1137 </r>
       <r>    -3.3531     1.8166     0.2083 </r>
       <r>    -3.3010     3.0350     0.3664 </r>
       <r>    -3.2489     4.5616     0.6041 </r>
       <r>    -3.1968     5.8718     0.9100 </r>
       <r>    -3.1447     6.2169     1.2339 </r>
       <r>    -3.0926     5.3583     1.5130 </r>
       <r>    -3.0405     3.8585     1.7140 </r>
       <r>    -2.9884     2.4334     1.8408 </r>
       <r>    -2.9363     1.4086     1.9142 </r>
       <r>    -2.8842     0.7753     1.9546 </r>
       <r>    -2.8321     0.4149     1.9762 </r>
       <r>    -2.7800     0.2187     1.9876 </r>
       <r>    -2.7279     0.1143     1.9936 </r>
       <r>    -2.6758     0.0595     1.9967 </r>
       <r>    -2.6237     0.0309     1.9983 </r>
       <r>    -2.5716     0.0161     1.9991 </r>
       <r>    -2.5195     0.0000     2.0000 </r>
       <r>    -2.4674     0.0000     2.0000 </r>
       <r>    -2.4153     0.0000     2.0000 </r>
       <r>    -2.3632     0.0000     2.0000 </r>
       <r>    -2.3111     0.0000     2.0000 </r>
       <r>    -2.2590     0.0000     2.0000 </r>
       <r>    -2.2069     0.0000     2.0000 </r>
       <r>    -2.1548     0.0000     2.0000 </r>
       <r>    -2.1027     0.0000     2.0000 </r>
       <r>    -2.0506     0.0000     2.0000 </r>
       <r>    -1.9985     0.0000     2.0000 </r>
       <r>    -1.9464     0.0000     2.0000 </r>
       <r>    -1.8943     0.0000     2.0000 </r>
       <r>    -1.8422     0.0000     2.0000 </r>
       <r>    -1.7901     0.0000     2.0000 </r>
       <r>    -1.7380     0.0000     2.0000 </r>
       <r>    -1.6859     0.0000     2.0000 </r>
       <r>    -1.6338     0.0000     2.0000 </r>
       <r>    -1.5818     0.0089     2.0005 </r>
       <r>    -1.5297     0.0083     2.0009 </r>
       <r>    -1.4776     0.0160     2.0017 </r>
       <r>    -1.4255     0.0308     2.0033 </r>
       <r>    -1.3734     0.0592     2.0064 </r>
       <r>    -1.3213     0.1137     2.0123 </r>
       <r>    -1.2692     0.2173     2.0237 </r>
       <r>    -1.2171     0.4122     2.0451 </r>
       <r>    -1.1650     0.7696     2.0852 </r>
       <r>    -1.1129     1.3965     2.1580 </r>
       <r>    -1.0608     2.4077     2.2834 </r>
       <r>    -1.0087     3.8100     2.4819 </r>
       <r>    -0.9566     5.2879     2.7574 </r>
       <r>    -0.9045     6.1557     3.0781 </r>
       <r>    -0.8524     5.8625     3.3835 </r>
       <r>    -0.8003     4.6060     3.6235 </r>
       <r>    -0.7482     3.0974     3.7848 </r>
       <r>    -0.6961     1.8688     3.8822 </r>
       <r>    -0.6440     1.0539     3.9371 </r>
       <r>    -0.5919     0.5717     3.9669 </r>
       <r>    -0.5398     0.3035     3.9827 </r>
       <r>    -0.4877     0.1593     3.9910 </r>
       <r>    -0.4356     0.0831     3.9953 </r>
       <r>    -0.3835     0.0432     3.9976 </r>
       <r>    -0.3314     0.0224     3.9987 </r>
       <r>    -0.2793     0.0067     3.9996 </r>
       <r>    -0.2272     0.0000     4.0000 </r>
       <r>    -0.1751     0.0000     4.0000 </r>
       <r>    -0.1230     0.0000     4.0000 </r>
       <r>    -0.0709     0.0000     4.0000 </r>
       <r>    -0.0188     0.0000     4.0000 </r>
       <r>     0.0333     0.0000     4.0000 </r>
       <r>     0.0854     0.0000     4.0000 </r>
       <r>     0.1375     0.0000     4.0000 </r>
       <r>     0.1896     0.0000     4.0000 </r>
       <r>     0.2417     0.0000     4.0000 </r>
       <r>     0.2937     0.0000     4.0000 </r>
       <r>     0.3458     0.0000     4.0000 </r>
       <r>     0.3979     0.0000     4.0000 </r>
       <r>     0.4500     0.0000     4.0000 </r>
       <r>     0.5021     0.0000     4.0000 </r>
       <r>     0.5542     0.0000     4.0000 </r>
       <r>     0.6063     0.0000     4.0000 </r>
       <r>     0.6584     0.0000     4.0000 </r>
       <r>     0.7105     0.0000     4.0000 </r>
       <r>     0.7626     0.0029     4.0002 </r>
       <r>     0.8147     0.0069     4.0005 </r>
       <r>     0.8668     0.0091     4.0010 </r>
       <r>     0.9189     0.0197     4.0020 </r>
       <r>     0.9710     0.0358     4.0039 </r>
       <r>     1.0231     0.0688     4.0075 </r>
       <r>     1.0752     0.1316     4.0143 </r>
       <r>     1.1273     0.2501     4.0273 </r>
       <r>     1.1794     0.4690     4.0518 </r>
       <r>     1.2315     0.8579     4.0965 </r>
       <r>     1.2836     1.5032     4.1748 </r>
       <r>     1.3357     2.4572     4.3028 </r>
       <r>     1.3878     3.6320     4.4920 </r>
       <r>     1.4399     4.7275     4.7383 </r>
       <r>     1.4920     5.3455     5.0168 </r>
       <r>     1.5441     5.2543     5.2905 </r>
       <r>     1.5962     4.5314     5.5266 </r>
       <r>     1.6483     3.4590     5.7068 </r>
       <r>     1.7004     2.3558     5.8295 </r>
[...]
       <r>    10.8777     0.4822    22.9726 </r>
       <r>    10.9310     0.2787    22.9875 </r>
       <r>    10.9844     0.1790    22.9971 </r>
       <r>    11.0377     0.1552    23.0053 </r>
       <r>    11.0910     0.2003    23.0160 </r>
       <r>    11.1444     0.3297    23.0338 </r>
       <r>    11.1977     0.5918    23.0654 </r>
       <r>    11.2510     1.0437    23.1210 </r>
       <r>    11.3044     1.7134    23.2127 </r>
       <r>    11.3577     2.4935    23.3457 </r>
       <r>    11.4110     3.0443    23.5080 </r>
       <r>    11.4644     3.0130    23.6687 </r>
       <r>    11.5177     2.4220    23.7979 </r>
       <r>    11.5710     1.6407    23.8854 </r>
       <r>    11.6244     0.9861    23.9380 </r>
       <r>    11.6777     0.5504    23.9674 </r>
       <r>    11.7311     0.2946    23.9831 </r>
       <r>    11.7844     0.1541    23.9913 </r>
       <r>    11.8377     0.0796    23.9955 </r>
       <r>    11.8911     0.0409    23.9977 </r>
       <r>    11.9444     0.0209    23.9988 </r>
       <r>    11.9977     0.0107    23.9994 </r>
       <r>    12.0511     0.0031    23.9998 </r>
       <r>    12.1044     0.0000    24.0000 </r>
       <r>    12.1577     0.0000    24.0000 </r>
       <r>    12.2111     0.0000    24.0000 </r>
      </set>
     </set>
    </array>
   </total>
  </dos>
  <time name="totalsc">    0.06    0.06</time>
  <eigenvalues>
   <array>
    <dimension dim="1">band</dimension>
    <dimension dim="2">kpoint</dimension>
    <dimension dim="3">spin</dimension>
    <field>eigene</field>
    <field>occ</field>
    <set>
     <set comment="spin 1">
      <set comment="kpoint 1">
       <r>   -3.0049    1.0000 </r>
       <r>   -0.8789    1.0000 </r>
       <r>    1.7095    1.0000 </r>
       <r>    2.6950    1.0000 </r>
       <r>    2.9193    1.0000 </r>
       <r>    4.7301    0.9206 </r>
       <r>    5.1372    0.0639 </r>
       <r>    6.0329    0.0000 </r>
       <r>    7.3390    0.0000 </r>
       <r>    8.0501    0.0000 </r>
       <r>    8.4709    0.0000 </r>
       <r>   10.9011    0.0000 </r>
      </set>
      <set comment="kpoint 2">
       <r>   -3.0043    1.0000 </r>
       <r>   -0.8836    1.0000 </r>
       <r>    1.7314    1.0000 </r>
       <r>    2.6977    1.0000 </r>
       <r>    2.9002    1.0000 </r>
       <r>    4.7274    0.9231 </r>
       <r>    5.0993    0.0991 </r>
       <r>    6.0636    0.0000 </r>
       <r>    7.3733    0.0000 </r>
       <r>    8.0590    0.0000 </r>
       <r>    8.4514    0.0000 </r>
       <r>   10.4666    0.0000 </r>
      </set>
      <set comment="kpoint 3">
       <r>   -3.0044    1.0000 </r>
       <r>   -0.8828    1.0000 </r>
       <r>    1.7277    1.0000 </r>
       <r>    2.6963    1.0000 </r>
       <r>    2.9045    1.0000 </r>
       <r>    4.7339    0.9170 </r>
       <r>    5.0990    0.0995 </r>
       <r>    6.0567    0.0000 </r>
       <r>    7.3687    0.0000 </r>
       <r>    8.0577    0.0000 </r>
       <r>    8.4554    0.0000 </r>
       <r>   11.3419    0.0000 </r>
      </set>
      <set comment="kpoint 4">
       <r>   -3.0051    1.0000 </r>
       <r>   -0.8781    1.0000 </r>
       <r>    1.7061    1.0000 </r>
       <r>    2.6942    1.0000 </r>
       <r>    2.9226    1.0000 </r>
       <r>    4.7373    0.9136 </r>
       <r>    5.1380    0.0632 </r>
       <r>    6.0230    0.0000 </r>
       <r>    7.3357    0.0000 </r>
       <r>    8.0505    0.0000 </r>
       <r>    8.4731    0.0000 </r>
       <r>   11.1058    0.0000 </r>
      </set>
     </set>
    </set>
   </array>
  </eigenvalues>
  <separator name="orbital magnetization" >
   <v name="MAGDIPOLOUT">      0.00000000      0.00000000      0.00000000</v>
  </separator>
  <dos>
   <i name="efermi">      4.92435968 </i>
   <total>
    <array>
     <dimension dim="1">gridpoints</dimension>
     <dimension dim="2">spin</dimension>
     <field>energy</field>
     <field>total</field>
     <field>integrated</field>
     <set>
      <set comment="spin 1">
       <r>    -3.7978     0.0000     0.0000 </r>
       <r>    -3.7447     0.0000     0.0000 </r>
       <r>    -3.6916     0.0049     0.0003 </r>
       <r>    -3.6385     0.0078     0.0007 </r>
       <r>    -3.5854     0.0121     0.0013 </r>
       <r>    -3.5323     0.0236     0.0026 </r>
       <r>    -3.4792     0.0461     0.0050 </r>
       <r>    -3.4261     0.0897     0.0098 </r>
       <r>    -3.3730     0.1740     0.0190 </r>
       <r>    -3.3199     0.3354     0.0368 </r>
       <r>    -3.2668     0.6383     0.0707 </r>
       <r>    -3.2136     1.1858     0.1337 </r>
       <r>    -3.1605     2.1071     0.2456 </r>
       <r>    -3.1074     3.4645     0.4296 </r>
       <r>    -3.0543     5.0292     0.6967 </r>
       <r>    -3.0012     6.1215     1.0218 </r>
       <r>    -2.9481     6.0359     1.3424 </r>
       <r>    -2.8950     4.8340     1.5991 </r>
       <r>    -2.8419     3.2667     1.7726 </r>
       <r>    -2.7888     1.9620     1.8768 </r>
       <r>    -2.7357     1.0961     1.9350 </r>
       <r>    -2.6826     0.5876     1.9662 </r>
       <r>    -2.6295     0.3081     1.9826 </r>
       <r>    -2.5763     0.1597     1.9910 </r>
       <r>    -2.5232     0.0822     1.9954 </r>
       <r>    -2.4701     0.0422     1.9976 </r>
       <r>    -2.4170     0.0216     1.9988 </r>
       <r>    -2.3639     0.0000     2.0000 </r>
       <r>    -2.3108     0.0000     2.0000 </r>
       <r>    -2.2577     0.0000     2.0000 </r>
       <r>    -2.2046     0.0000     2.0000 </r>
       <r>    -2.1515     0.0000     2.0000 </r>
       <r>    -2.0984     0.0000     2.0000 </r>
       <r>    -2.0453     0.0000     2.0000 </r>
       <r>    -1.9922     0.0000     2.0000 </r>
       <r>    -1.9390     0.0000     2.0000 </r>
       <r>    -1.8859     0.0000     2.0000 </r>
       <r>    -1.8328     0.0000     2.0000 </r>
       <r>    -1.7797     0.0000     2.0000 </r>
       <r>    -1.7266     0.0000     2.0000 </r>
       <r>    -1.6735     0.0000     2.0000 </r>
       <r>    -1.6204     0.0000     2.0000 </r>
       <r>    -1.5673     0.0034     2.0002 </r>
       <r>    -1.5142     0.0094     2.0007 </r>
       <r>    -1.4611     0.0122     2.0013 </r>
       <r>    -1.4080     0.0238     2.0026 </r>
       <r>    -1.3549     0.0464     2.0051 </r>
       <r>    -1.3017     0.0903     2.0099 </r>
       <r>    -1.2486     0.1753     2.0192 </r>
       <r>    -1.1955     0.3378     2.0371 </r>
       <r>    -1.1424     0.6427     2.0712 </r>
       <r>    -1.0893     1.1934     2.1346 </r>
       <r>    -1.0362     2.1191     2.2472 </r>
       <r>    -0.9831     3.4804     2.4320 </r>
       <r>    -0.9300     5.0437     2.6998 </r>
       <r>    -0.8769     6.1261     3.0252 </r>
       <r>    -0.8238     6.0272     3.3453 </r>
       <r>    -0.7707     4.8182     3.6012 </r>
       <r>    -0.7176     3.2518     3.7739 </r>
       <r>    -0.6644     1.9515     3.8775 </r>
       <r>    -0.6113     1.0897     3.9354 </r>
       <r>    -0.5582     0.5841     3.9664 </r>
       <r>    -0.5051     0.3062     3.9827 </r>
       <r>    -0.4520     0.1587     3.9911 </r>
       <r>    -0.3989     0.0817     3.9954 </r>
       <r>    -0.3458     0.0420     3.9977 </r>
       <r>    -0.2927     0.0215     3.9988 </r>
       <r>    -0.2396     0.0000     4.0000 </r>
       <r>    -0.1865     0.0000     4.0000 </r>
       <r>    -0.1334     0.0000     4.0000 </r>
       <r>    -0.0803     0.0000     4.0000 </r>
       <r>    -0.0271     0.0000     4.0000 </r>
       <r>     0.0260     0.0000     4.0000 </r>
       <r>     0.0791     0.0000     4.0000 </r>
       <r>     0.1322     0.0000     4.0000 </r>
       <r>     0.1853     0.0000     4.0000 </r>
       <r>     0.2384     0.0000     4.0000 </r>
       <r>     0.2915     0.0000     4.0000 </r>
       <r>     0.3446     0.0000     4.0000 </r>
       <r>     0.3977     0.0000     4.0000 </r>
       <r>     0.4508     0.0000     4.0000 </r>
       <r>     0.5039     0.0000     4.0000 </r>
       <r>     0.5570     0.0000     4.0000 </r>
       <r>     0.6101     0.0000     4.0000 </r>
       <r>     0.6633     0.0000     4.0000 </r>
       <r>     0.7164     0.0000     4.0000 </r>
       <r>     0.7695     0.0000     4.0000 </r>
       <r>     0.8226     0.0000     4.0000 </r>
       <r>     0.8757     0.0000     4.0000 </r>
       <r>     0.9288     0.0000     4.0000 </r>
       <r>     0.9819     0.0000     4.0000 </r>
       <r>     1.0350     0.0039     4.0002 </r>
       <r>     1.0881     0.0095     4.0007 </r>
       <r>     1.1412     0.0127     4.0014 </r>
       <r>     1.1943     0.0249     4.0027 </r>
       <r>     1.2474     0.0485     4.0053 </r>
       <r>     1.3006     0.0944     4.0103 </r>
       <r>     1.3537     0.1830     4.0200 </r>
       <r>     1.4068     0.3524     4.0387 </r>
       <r>     1.4599     0.6694     4.0743 </r>
       <r>     1.5130     1.2393     4.1401 </r>
       <r>     1.5661     2.1891     4.2563 </r>
       <r>     1.6192     3.5656     4.4457 </r>
       <r>     1.6723     5.1089     4.7170 </r>
       <r>     1.7254     6.1276     5.0425 </r>
       <r>     1.7785     5.9632     5.3592 </r>
       <r>     1.8316     4.7320     5.6105 </r>
       <r>     1.8847     3.1807     5.7794 </r>
       <r>     1.9379     1.9051     5.8806 </r>
       <r>     1.9910     1.0628     5.9370 </r>
       <r>     2.0441     0.5796     5.9678 </r>
       <r>     2.0972     0.3081     5.9842 </r>
       <r>     2.1503     0.1735     5.9934 </r>
       <r>     2.2034     0.1164     5.9996 </r>
       <r>     2.2565     0.1224     6.0061 </r>
       <r>     2.3096     0.1696     6.0151 </r>
       <r>     2.3627     0.2906     6.0313 </r>
       <r>     2.4158     0.5507     6.0607 </r>
       <r>     2.4689     1.0356     6.1157 </r>
       <r>     2.5220     1.8828     6.2157 </r>
       <r>     2.5752     3.2242     6.3870 </r>
       <r>     2.6283     5.0109     6.6531 </r>
       <r>     2.6814     6.7934     7.0139 </r>
       <r>     2.7345     7.9051     7.4337 </r>
       <r>     2.7876     8.2001     7.8692 </r>
       <r>     2.8407     8.1956     8.3044 </r>
       <r>     2.8938     8.1321     8.7363 </r>
       <r>     2.9469     7.5501     9.1373 </r>
       <r>     3.0000     6.1237     9.4625 </r>
       <r>     3.0531     4.2738     9.6895 </r>
       <r>     3.1062     2.6401     9.8297 </r>
       <r>     3.1593     1.5026     9.9095 </r>
       <r>     3.2125     0.8144     9.9528 </r>
       <r>     3.2656     0.4296     9.9756 </r>
       <r>     3.3187     0.2233     9.9874 </r>
       <r>     3.3718     0.1081     9.9939 </r>
       <r>     3.4249     0.0556     9.9969 </r>
       <r>     3.4780     0.0285     9.9984 </r>
       <r>     3.5311     0.0146     9.9992 </r>
       <r>     3.5842     0.0000    10.0000 </r>
       <r>     3.6373     0.0000    10.0000 </r>
       <r>     3.6904     0.0000    10.0000 </r>
       <r>     3.7435     0.0000    10.0000 </r>
       <r>     3.7966     0.0000    10.0000 </r>
       <r>     3.8498     0.0000    10.0000 </r>
       <r>     3.9029     0.0000    10.0000 </r>
       <r>     3.9560     0.0000    10.0000 </r>
       <r>     4.0091     0.0000    10.0000 </r>
       <r>     4.0622     0.0080    10.0004 </r>
       <r>     4.1153     0.0077    10.0008 </r>
       <r>     4.1684     0.0150    10.0016 </r>
       <r>     4.2215     0.0293    10.0032 </r>
       <r>     4.2746     0.0570    10.0062 </r>
       <r>     4.3277     0.1110    10.0121 </r>
       <r>     4.3808     0.2149    10.0235 </r>
       <r>     4.4339     0.4172    10.0457 </r>
       <r>     4.4871     0.7902    10.0876 </r>
       <r>     4.5402     1.4470    10.1645 </r>
       <r>     4.5933     2.5212    10.2984 </r>
       <r>     4.6464     4.0140    10.5116 </r>
       <r>     4.6995     5.5634    10.8070 </r>
       <r>     4.7526     6.4208    11.1480 </r>
       <r>     4.8057     6.0973    11.4718 </r>
       <r>     4.8588     5.0087    11.7378 </r>
       <r>     4.9119     4.0515    11.9530 </r>
       <r>     4.9650     3.8320    12.1565 </r>
       <r>     5.0181     4.4543    12.3931 </r>
       <r>     5.0712     5.5446    12.6876 </r>
       <r>     5.1243     6.3148    13.0229 </r>
       <r>     5.1775     6.0542    13.3444 </r>
       <r>     5.2306     4.8081    13.5998 </r>
       <r>     5.2837     3.2512    13.7725 </r>
       <r>     5.3368     1.9604    13.8766 </r>
       <r>     5.3899     1.0966    13.9358 </r>
       <r>     5.4430     0.5942    13.9673 </r>
       <r>     5.4961     0.3256    13.9846 </r>
       <r>     5.5492     0.1956    13.9950 </r>
       <r>     5.6023     0.1531    14.0032 </r>
       <r>     5.6554     0.1801    14.0127 </r>
       <r>     5.7085     0.2883    14.0280 </r>
       <r>     5.7616     0.5167    14.0559 </r>
       <r>     5.8148     0.9553    14.1070 </r>
       <r>     5.8679     1.7249    14.1987 </r>
       <r>     5.9210     2.9172    14.3536 </r>
       <r>     5.9741     4.4334    14.5890 </r>
       <r>     6.0272     5.7644    14.8952 </r>
       <r>     6.0803     6.1604    15.2223 </r>
       <r>     6.1334     5.3497    15.5064 </r>
       <r>     6.1865     3.8652    15.7117 </r>
       <r>     6.2396     2.4323    15.8409 </r>
       <r>     6.2927     1.3983    15.9152 </r>
       <r>     6.3458     0.7620    15.9556 </r>
       <r>     6.3989     0.4031    15.9770 </r>
       <r>     6.4521     0.2099    15.9882 </r>
       <r>     6.5052     0.1083    15.9939 </r>
       <r>     6.5583     0.0557    15.9969 </r>
       <r>     6.6114     0.0286    15.9984 </r>
       <r>     6.6645     0.0158    15.9995 </r>
       <r>     6.7176     0.0087    16.0007 </r>
       <r>     6.7707     0.0120    16.0013 </r>
       <r>     6.8238     0.0233    16.0025 </r>
       <r>     6.8769     0.0455    16.0050 </r>
       <r>     6.9300     0.0886    16.0097 </r>
       <r>     6.9831     0.1719    16.0188 </r>
       <r>     7.0362     0.3312    16.0364 </r>
       <r>     7.0894     0.6298    16.0698 </r>
       <r>     7.1425     1.1685    16.1319 </r>
       <r>     7.1956     2.0722    16.2419 </r>
       <r>     7.2487     3.3997    16.4225 </r>
       <r>     7.3018     4.9318    16.6844 </r>
       <r>     7.3549     6.0281    17.0045 </r>
       <r>     7.4080     6.0215    17.3243 </r>
       <r>     7.4611     4.9021    17.5847 </r>
       <r>     7.5142     3.3787    17.7641 </r>
       <r>     7.5673     2.0811    17.8746 </r>
       <r>     7.6204     1.2262    17.9398 </r>
       <r>     7.6735     0.7682    17.9806 </r>
       <r>     7.7267     0.6134    18.0131 </r>
       <r>     7.7798     0.7229    18.0515 </r>
       <r>     7.8329     1.1260    18.1113 </r>
       <r>     7.8860     1.9098    18.2128 </r>
       <r>     7.9391     3.1601    18.3806 </r>
       <r>     7.9922     4.7278    18.6322 </r>
       <r>     8.0453     6.0442    18.9536 </r>
       <r>     8.0984     6.3554    19.2911 </r>
       <r>     8.1515     5.5337    19.5850 </r>
       <r>     8.2046     4.3010    19.8134 </r>
       <r>     8.2577     3.4775    19.9981 </r>
       <r>     8.3108     3.4657    20.1821 </r>
       <r>     8.3640     4.2675    20.4088 </r>
       <r>     8.4171     5.4900    20.7003 </r>
       <r>     8.4702     6.3278    21.0364 </r>
       <r>     8.5233     6.0553    21.3580 </r>
       <r>     8.5764     4.7630    21.6109 </r>
       <r>     8.6295     3.1849    21.7801 </r>
       <r>     8.6826     1.9017    21.8811 </r>
       <r>     8.7357     1.0524    21.9377 </r>
       <r>     8.7888     0.5634    21.9676 </r>
       <r>     8.8419     0.2952    21.9833 </r>
       <r>     8.8950     0.1529    21.9914 </r>
       <r>     8.9481     0.0788    21.9956 </r>
       <r>     9.0012     0.0404    21.9977 </r>
       <r>     9.0544     0.0207    21.9988 </r>
       <r>     9.1075     0.0000    22.0000 </r>
       <r>     9.1606     0.0000    22.0000 </r>
       <r>     9.2137     0.0000    22.0000 </r>
       <r>     9.2668     0.0000    22.0000 </r>
       <r>     9.3199     0.0000    22.0000 </r>
       <r>     9.3730     0.0000    22.0000 </r>
       <r>     9.4261     0.0000    22.0000 </r>
       <r>     9.4792     0.0000    22.0000 </r>
       <r>     9.5323     0.0000    22.0000 </r>
       <r>     9.5854     0.0000    22.0000 </r>
       <r>     9.6385     0.0000    22.0000 </r>
       <r>     9.6917     0.0000    22.0000 </r>
       <r>     9.7448     0.0000    22.0000 </r>
       <r>     9.7979     0.0020    22.0001 </r>
       <r>     9.8510     0.0019    22.0002 </r>
       <r>     9.9041     0.0038    22.0004 </r>
       <r>     9.9572     0.0074    22.0008 </r>
       <r>    10.0103     0.0145    22.0016 </r>
       <r>    10.0634     0.0281    22.0031 </r>
       <r>    10.1165     0.0545    22.0060 </r>
       <r>    10.1696     0.1047    22.0115 </r>
       <r>    10.2227     0.1998    22.0221 </r>
       <r>    10.2758     0.3650    22.0415 </r>
       <r>    10.3290     0.6347    22.0752 </r>
       <r>    10.3821     1.0072    22.1287 </r>
       <r>    10.4352     1.3898    22.2025 </r>
       <r>    10.4883     1.5876    22.2868 </r>
       <r>    10.5414     1.4818    22.3655 </r>
       <r>    10.5945     1.1748    22.4279 </r>
       <r>    10.6476     0.8842    22.4749 </r>
       <r>    10.7007     0.7614    22.5153 </r>
       <r>    10.7538     0.8527    22.5606 </r>
       <r>    10.8069     1.1549    22.6219 </r>
       <r>    10.8600     1.5809    22.7059 </r>
       <r>    10.9131     1.9575    22.8099 </r>
       <r>    10.9663     2.1512    22.9241 </r>
       <r>    11.0194     2.2171    23.0419 </r>
       <r>    11.0725     2.2709    23.1625 </r>
       <r>    11.1256     2.2802    23.2838 </r>
       <r>    11.1787     2.1761    23.3994 </r>
       <r>    11.2318     2.0349    23.5074 </r>
       <r>    11.2849     1.9806    23.6126 </r>
       <r>    11.3380     1.9562    23.7165 </r>
       <r>    11.3911     1.7770    23.8109 </r>
       <r>    11.4442     1.3903    23.8847 </r>
       <r>    11.4973     0.9370    23.9345 </r>
       <r>    11.5504     0.5615    23.9646 </r>
       <r>    11.6036     0.3146    23.9813 </r>
       <r>    11.6567     0.1690    23.9903 </r>
       <r>    11.7098     0.0887    23.9950 </r>
       <r>    11.7629     0.0437    23.9975 </r>
       <r>    11.8160     0.0225    23.9987 </r>
       <r>    11.8691     0.0116    23.9994 </r>
       <r>    11.9222     0.0059    23.9997 </r>
       <r>    11.9753     0.0030    23.9998 </r>
       <r>    12.0284     0.0000    24.0000 </r>
       <r>    12.0815     0.0000    24.0000 </r>
       <r>    12.1346     0.0000    24.0000 </r>
      </set>
     </set>
    </array>
   </total>
  </dos>
 </calculation>
 <structure name="finalpos" >
  <crystal>
   <varray name="basis" >
    <v>       7.09105799       0.00000000       0.00000000 </v>
    <v>       0.00000000       3.54552899       0.00000000 </v>
    <v>       0.00000000       0.00000000       3.54552899 </v>
   </varray>
   <i name="volume">     89.14010044 </i>
   <varray name="rec_basis" >
    <v>       0.14102268       0.00000000       0.00000000 </v>
    <v>       0.00000000       0.28204536       0.00000000 </v>
    <v>       0.00000000       0.00000000       0.28204536 </v>
   </varray>
  </crystal>
  <varray name="positions" >
   <v>       0.06663899       0.12013999       0.99901527 </v>
   <v>       0.42373488       0.13328974       0.00507223 </v>
   <v>       0.26669601       0.61406283       0.50300011 </v>
   <v>       0.74293013       0.13250743       0.49291239 </v>
  </varray>
  <varray name="velocities" >
   <v>       0.00050923       0.00137009      -0.00031542 </v>
   <v>      -0.00043491      -0.00040642       0.00035487 </v>
   <v>      -0.00002834      -0.00068957      -0.00042562 </v>
   <v>      -0.00004598      -0.00027410       0.00038617 </v>
  </varray>
 </structure>
</modeling>
