 running on    6 nodes
 distr:  one band on    1 nodes,    6 groups
 md.x 0.99
 POSCAR found :  1 types and     7056 ions
Rc and Rl:   5.500000  7.321000
 TIPO = eam     
 TIPO1 = uknown p
 Using EAM

 EAM parameters: 
 C  =   9.9634  EPS  = 0.2048  A  = 3.5678  M  = 3.127  N  =  6.366  R1 =   5.500000


 ----------------------------------------------------------------------------- 
|                                                                             |
|           W    W    AA    RRRRR   N    N  II  N    N   GGGG   !!!           |
|           W    W   A  A   R    R  NN   N  II  NN   N  G    G  !!!           |
|           W    W  A    A  R    R  N N  N  II  N N  N  G       !!!           |
|           W WW W  AAAAAA  RRRRR   N  N N  II  N  N N  G  GGG   !            |
|           WW  WW  A    A  R   R   N   NN  II  N   NN  G    G                |
|           W    W  A    A  R    R  N    N  II  N    N   GGGG   !!!           |
|                                                                             |
|      VASP found  21165 degrees of freedom                                   |
|      the temperature will equal 2*E(kin)/ (degrees of freedom)              |
|      this differs from previous releases, where T was 2*E(kin)/(3 NIONS).   |
|      The new definition is more consistent                                  |
|                                                                             |
 ----------------------------------------------------------------------------- 

 Random init:       23123         694
 Random init:       23123         694
 Random init:       23123         694
 alloco spazio per displ
 Random init:       23123         694
 Random init:       23123         694
 Random init:       23123         694
       10 T=  4349. E= -.27176588E+05 F= -.31142599E+05 EK= 0.39660E+04 SP= 0.00E+00 SK= 0.00E+00
       20 T=  4221. E= -.27176300E+05 F= -.31025744E+05 EK= 0.38494E+04 SP= 0.00E+00 SK= 0.00E+00
       30 T=  4270. E= -.27176506E+05 F= -.31070807E+05 EK= 0.38943E+04 SP= 0.00E+00 SK= 0.00E+00
       40 T=  4249. E= -.27176405E+05 F= -.31051259E+05 EK= 0.38749E+04 SP= 0.00E+00 SK= 0.00E+00
       50 T=  4258. E= -.27176426E+05 F= -.31059734E+05 EK= 0.38833E+04 SP= 0.00E+00 SK= 0.00E+00
       60 T=  4298. E= -.27176382E+05 F= -.31095933E+05 EK= 0.39196E+04 SP= 0.00E+00 SK= 0.00E+00
       70 T=  4298. E= -.27176327E+05 F= -.31095721E+05 EK= 0.39194E+04 SP= 0.00E+00 SK= 0.00E+00
       80 T=  4296. E= -.27176282E+05 F= -.31093831E+05 EK= 0.39175E+04 SP= 0.00E+00 SK= 0.00E+00
       90 T=  4307. E= -.27176441E+05 F= -.31103906E+05 EK= 0.39275E+04 SP= 0.00E+00 SK= 0.00E+00
      100 T=  4243. E= -.27176322E+05 F= -.31045841E+05 EK= 0.38695E+04 SP= 0.00E+00 SK= 0.00E+00
      110 T=  4258. E= -.27176345E+05 F= -.31059618E+05 EK= 0.38833E+04 SP= 0.00E+00 SK= 0.00E+00
      120 T=  4286. E= -.27176339E+05 F= -.31084800E+05 EK= 0.39085E+04 SP= 0.00E+00 SK= 0.00E+00
      130 T=  4273. E= -.27176438E+05 F= -.31073287E+05 EK= 0.38968E+04 SP= 0.00E+00 SK= 0.00E+00
      140 T=  4243. E= -.27176416E+05 F= -.31045590E+05 EK= 0.38692E+04 SP= 0.00E+00 SK= 0.00E+00
      150 T=  4275. E= -.27176487E+05 F= -.31074656E+05 EK= 0.38982E+04 SP= 0.00E+00 SK= 0.00E+00
      160 T=  4297. E= -.27176449E+05 F= -.31094613E+05 EK= 0.39182E+04 SP= 0.00E+00 SK= 0.00E+00
      170 T=  4321. E= -.27176638E+05 F= -.31117420E+05 EK= 0.39408E+04 SP= 0.00E+00 SK= 0.00E+00
      180 T=  4244. E= -.27176424E+05 F= -.31046534E+05 EK= 0.38701E+04 SP= 0.00E+00 SK= 0.00E+00
      190 T=  4266. E= -.27176445E+05 F= -.31066466E+05 EK= 0.38900E+04 SP= 0.00E+00 SK= 0.00E+00
      200 T=  4274. E= -.27176392E+05 F= -.31074017E+05 EK= 0.38976E+04 SP= 0.00E+00 SK= 0.00E+00
      210 T=  4261. E= -.27176348E+05 F= -.31062057E+05 EK= 0.38857E+04 SP= 0.00E+00 SK= 0.00E+00
      220 T=  4289. E= -.27176360E+05 F= -.31088018E+05 EK= 0.39117E+04 SP= 0.00E+00 SK= 0.00E+00
      230 T=  4279. E= -.27176269E+05 F= -.31078001E+05 EK= 0.39017E+04 SP= 0.00E+00 SK= 0.00E+00
      240 T=  4231. E= -.27176169E+05 F= -.31034170E+05 EK= 0.38580E+04 SP= 0.00E+00 SK= 0.00E+00
      250 T=  4233. E= -.27176180E+05 F= -.31036105E+05 EK= 0.38599E+04 SP= 0.00E+00 SK= 0.00E+00
      260 T=  4249. E= -.27176141E+05 F= -.31050886E+05 EK= 0.38747E+04 SP= 0.00E+00 SK= 0.00E+00
      270 T=  4223. E= -.27176054E+05 F= -.31027111E+05 EK= 0.38511E+04 SP= 0.00E+00 SK= 0.00E+00
      280 T=  4247. E= -.27176214E+05 F= -.31049384E+05 EK= 0.38732E+04 SP= 0.00E+00 SK= 0.00E+00
      290 T=  4256. E= -.27176142E+05 F= -.31057458E+05 EK= 0.38813E+04 SP= 0.00E+00 SK= 0.00E+00
      300 T=  4276. E= -.27176258E+05 F= -.31075250E+05 EK= 0.38990E+04 SP= 0.00E+00 SK= 0.00E+00
      310 T=  4247. E= -.27176155E+05 F= -.31049299E+05 EK= 0.38731E+04 SP= 0.00E+00 SK= 0.00E+00
      320 T=  4292. E= -.27176268E+05 F= -.31090568E+05 EK= 0.39143E+04 SP= 0.00E+00 SK= 0.00E+00
      330 T=  4277. E= -.27176170E+05 F= -.31076335E+05 EK= 0.39002E+04 SP= 0.00E+00 SK= 0.00E+00
      340 T=  4308. E= -.27176307E+05 F= -.31104686E+05 EK= 0.39284E+04 SP= 0.00E+00 SK= 0.00E+00
      350 T=  4317. E= -.27176229E+05 F= -.31112711E+05 EK= 0.39365E+04 SP= 0.00E+00 SK= 0.00E+00
      360 T=  4293. E= -.27176218E+05 F= -.31091158E+05 EK= 0.39149E+04 SP= 0.00E+00 SK= 0.00E+00
      370 T=  4261. E= -.27176220E+05 F= -.31062294E+05 EK= 0.38861E+04 SP= 0.00E+00 SK= 0.00E+00
      380 T=  4242. E= -.27176097E+05 F= -.31044132E+05 EK= 0.38680E+04 SP= 0.00E+00 SK= 0.00E+00
      390 T=  4283. E= -.27176253E+05 F= -.31082436E+05 EK= 0.39062E+04 SP= 0.00E+00 SK= 0.00E+00
      400 T=  4257. E= -.27176191E+05 F= -.31058607E+05 EK= 0.38824E+04 SP= 0.00E+00 SK= 0.00E+00
      410 T=  4229. E= -.27176135E+05 F= -.31032893E+05 EK= 0.38568E+04 SP= 0.00E+00 SK= 0.00E+00
      420 T=  4272. E= -.27176203E+05 F= -.31072430E+05 EK= 0.38962E+04 SP= 0.00E+00 SK= 0.00E+00
      430 T=  4260. E= -.27176158E+05 F= -.31061303E+05 EK= 0.38851E+04 SP= 0.00E+00 SK= 0.00E+00
      440 T=  4233. E= -.27176150E+05 F= -.31036162E+05 EK= 0.38600E+04 SP= 0.00E+00 SK= 0.00E+00
      450 T=  4252. E= -.27176165E+05 F= -.31053632E+05 EK= 0.38775E+04 SP= 0.00E+00 SK= 0.00E+00
      460 T=  4273. E= -.27176297E+05 F= -.31072686E+05 EK= 0.38964E+04 SP= 0.00E+00 SK= 0.00E+00
      470 T=  4204. E= -.27176148E+05 F= -.31009626E+05 EK= 0.38335E+04 SP= 0.00E+00 SK= 0.00E+00
      480 T=  4208. E= -.27176247E+05 F= -.31013579E+05 EK= 0.38373E+04 SP= 0.00E+00 SK= 0.00E+00
      490 T=  4237. E= -.27176226E+05 F= -.31040016E+05 EK= 0.38638E+04 SP= 0.00E+00 SK= 0.00E+00
      500 T=  4280. E= -.27176317E+05 F= -.31079624E+05 EK= 0.39033E+04 SP= 0.00E+00 SK= 0.00E+00
      510 T=  4289. E= -.27176367E+05 F= -.31087675E+05 EK= 0.39113E+04 SP= 0.00E+00 SK= 0.00E+00
      520 T=  4285. E= -.27176339E+05 F= -.31083682E+05 EK= 0.39073E+04 SP= 0.00E+00 SK= 0.00E+00
      530 T=  4274. E= -.27176223E+05 F= -.31073421E+05 EK= 0.38972E+04 SP= 0.00E+00 SK= 0.00E+00
      540 T=  4273. E= -.27176343E+05 F= -.31072945E+05 EK= 0.38966E+04 SP= 0.00E+00 SK= 0.00E+00
      550 T=  4268. E= -.27176244E+05 F= -.31068318E+05 EK= 0.38921E+04 SP= 0.00E+00 SK= 0.00E+00
      560 T=  4300. E= -.27176374E+05 F= -.31097745E+05 EK= 0.39214E+04 SP= 0.00E+00 SK= 0.00E+00
      570 T=  4269. E= -.27176223E+05 F= -.31069454E+05 EK= 0.38932E+04 SP= 0.00E+00 SK= 0.00E+00
      580 T=  4269. E= -.27176286E+05 F= -.31069684E+05 EK= 0.38934E+04 SP= 0.00E+00 SK= 0.00E+00
      590 T=  4239. E= -.27176287E+05 F= -.31042329E+05 EK= 0.38660E+04 SP= 0.00E+00 SK= 0.00E+00
      600 T=  4268. E= -.27176265E+05 F= -.31068402E+05 EK= 0.38921E+04 SP= 0.00E+00 SK= 0.00E+00
      610 T=  4283. E= -.27176217E+05 F= -.31082357E+05 EK= 0.39061E+04 SP= 0.00E+00 SK= 0.00E+00
      620 T=  4254. E= -.27176150E+05 F= -.31055145E+05 EK= 0.38790E+04 SP= 0.00E+00 SK= 0.00E+00
      630 T=  4267. E= -.27176230E+05 F= -.31067723E+05 EK= 0.38915E+04 SP= 0.00E+00 SK= 0.00E+00
      640 T=  4286. E= -.27176200E+05 F= -.31085075E+05 EK= 0.39089E+04 SP= 0.00E+00 SK= 0.00E+00
      650 T=  4275. E= -.27176146E+05 F= -.31074785E+05 EK= 0.38986E+04 SP= 0.00E+00 SK= 0.00E+00
      660 T=  4294. E= -.27176107E+05 F= -.31091561E+05 EK= 0.39155E+04 SP= 0.00E+00 SK= 0.00E+00
      670 T=  4335. E= -.27176254E+05 F= -.31129153E+05 EK= 0.39529E+04 SP= 0.00E+00 SK= 0.00E+00
      680 T=  4301. E= -.27176226E+05 F= -.31098805E+05 EK= 0.39226E+04 SP= 0.00E+00 SK= 0.00E+00
      690 T=  4285. E= -.27176322E+05 F= -.31083977E+05 EK= 0.39077E+04 SP= 0.00E+00 SK= 0.00E+00
      700 T=  4235. E= -.27176227E+05 F= -.31038474E+05 EK= 0.38622E+04 SP= 0.00E+00 SK= 0.00E+00
      710 T=  4229. E= -.27176270E+05 F= -.31033225E+05 EK= 0.38570E+04 SP= 0.00E+00 SK= 0.00E+00
      720 T=  4239. E= -.27176259E+05 F= -.31041821E+05 EK= 0.38656E+04 SP= 0.00E+00 SK= 0.00E+00
      730 T=  4258. E= -.27176287E+05 F= -.31059150E+05 EK= 0.38829E+04 SP= 0.00E+00 SK= 0.00E+00
      740 T=  4245. E= -.27176272E+05 F= -.31047604E+05 EK= 0.38713E+04 SP= 0.00E+00 SK= 0.00E+00
      750 T=  4238. E= -.27176264E+05 F= -.31040761E+05 EK= 0.38645E+04 SP= 0.00E+00 SK= 0.00E+00
      760 T=  4257. E= -.27176346E+05 F= -.31058895E+05 EK= 0.38825E+04 SP= 0.00E+00 SK= 0.00E+00
      770 T=  4240. E= -.27176376E+05 F= -.31042972E+05 EK= 0.38666E+04 SP= 0.00E+00 SK= 0.00E+00
      780 T=  4224. E= -.27176408E+05 F= -.31028700E+05 EK= 0.38523E+04 SP= 0.00E+00 SK= 0.00E+00
      790 T=  4221. E= -.27176420E+05 F= -.31025867E+05 EK= 0.38494E+04 SP= 0.00E+00 SK= 0.00E+00
      800 T=  4250. E= -.27176519E+05 F= -.31052192E+05 EK= 0.38757E+04 SP= 0.00E+00 SK= 0.00E+00
      810 T=  4232. E= -.27176363E+05 F= -.31036088E+05 EK= 0.38597E+04 SP= 0.00E+00 SK= 0.00E+00
      820 T=  4252. E= -.27176472E+05 F= -.31053673E+05 EK= 0.38772E+04 SP= 0.00E+00 SK= 0.00E+00
      830 T=  4250. E= -.27176433E+05 F= -.31051790E+05 EK= 0.38754E+04 SP= 0.00E+00 SK= 0.00E+00
      840 T=  4239. E= -.27176366E+05 F= -.31042109E+05 EK= 0.38657E+04 SP= 0.00E+00 SK= 0.00E+00
      850 T=  4264. E= -.27176464E+05 F= -.31065391E+05 EK= 0.38889E+04 SP= 0.00E+00 SK= 0.00E+00
      860 T=  4250. E= -.27176465E+05 F= -.31051781E+05 EK= 0.38753E+04 SP= 0.00E+00 SK= 0.00E+00
      870 T=  4238. E= -.27176390E+05 F= -.31041052E+05 EK= 0.38647E+04 SP= 0.00E+00 SK= 0.00E+00
      880 T=  4243. E= -.27176365E+05 F= -.31045378E+05 EK= 0.38690E+04 SP= 0.00E+00 SK= 0.00E+00
      890 T=  4258. E= -.27176364E+05 F= -.31059676E+05 EK= 0.38833E+04 SP= 0.00E+00 SK= 0.00E+00
      900 T=  4225. E= -.27176290E+05 F= -.31029200E+05 EK= 0.38529E+04 SP= 0.00E+00 SK= 0.00E+00
      910 T=  4181. E= -.27176190E+05 F= -.30988759E+05 EK= 0.38126E+04 SP= 0.00E+00 SK= 0.00E+00
      920 T=  4224. E= -.27176289E+05 F= -.31028303E+05 EK= 0.38520E+04 SP= 0.00E+00 SK= 0.00E+00
      930 T=  4188. E= -.27176182E+05 F= -.30995510E+05 EK= 0.38193E+04 SP= 0.00E+00 SK= 0.00E+00
      940 T=  4167. E= -.27176202E+05 F= -.30976288E+05 EK= 0.38001E+04 SP= 0.00E+00 SK= 0.00E+00
      950 T=  4216. E= -.27176282E+05 F= -.31021096E+05 EK= 0.38448E+04 SP= 0.00E+00 SK= 0.00E+00
      960 T=  4191. E= -.27176147E+05 F= -.30997727E+05 EK= 0.38216E+04 SP= 0.00E+00 SK= 0.00E+00
      970 T=  4212. E= -.27176309E+05 F= -.31017187E+05 EK= 0.38409E+04 SP= 0.00E+00 SK= 0.00E+00
      980 T=  4185. E= -.27176190E+05 F= -.30992518E+05 EK= 0.38163E+04 SP= 0.00E+00 SK= 0.00E+00
      990 T=  4185. E= -.27176234E+05 F= -.30992902E+05 EK= 0.38167E+04 SP= 0.00E+00 SK= 0.00E+00
     1000 T=  4219. E= -.27176270E+05 F= -.31023717E+05 EK= 0.38474E+04 SP= 0.00E+00 SK= 0.00E+00
     1010 T=  4203. E= -.27176317E+05 F= -.31009540E+05 EK= 0.38332E+04 SP= 0.00E+00 SK= 0.00E+00
     1020 T=  4167. E= -.27176119E+05 F= -.30976050E+05 EK= 0.37999E+04 SP= 0.00E+00 SK= 0.00E+00
     1030 T=  4199. E= -.27176373E+05 F= -.31005878E+05 EK= 0.38295E+04 SP= 0.00E+00 SK= 0.00E+00
     1040 T=  4160. E= -.27176192E+05 F= -.30970228E+05 EK= 0.37940E+04 SP= 0.00E+00 SK= 0.00E+00
     1050 T=  4232. E= -.27176360E+05 F= -.31035733E+05 EK= 0.38594E+04 SP= 0.00E+00 SK= 0.00E+00
     1060 T=  4245. E= -.27176274E+05 F= -.31047769E+05 EK= 0.38715E+04 SP= 0.00E+00 SK= 0.00E+00
     1070 T=  4176. E= -.27176182E+05 F= -.30984844E+05 EK= 0.38087E+04 SP= 0.00E+00 SK= 0.00E+00
     1080 T=  4226. E= -.27176381E+05 F= -.31030484E+05 EK= 0.38541E+04 SP= 0.00E+00 SK= 0.00E+00
     1090 T=  4230. E= -.27176360E+05 F= -.31033905E+05 EK= 0.38575E+04 SP= 0.00E+00 SK= 0.00E+00
     1100 T=  4142. E= -.27176275E+05 F= -.30953087E+05 EK= 0.37768E+04 SP= 0.00E+00 SK= 0.00E+00
     1110 T=  4191. E= -.27176418E+05 F= -.30998217E+05 EK= 0.38218E+04 SP= 0.00E+00 SK= 0.00E+00
     1120 T=  4218. E= -.27176319E+05 F= -.31023087E+05 EK= 0.38468E+04 SP= 0.00E+00 SK= 0.00E+00
     1130 T=  4249. E= -.27176417E+05 F= -.31051469E+05 EK= 0.38751E+04 SP= 0.00E+00 SK= 0.00E+00
     1140 T=  4248. E= -.27176498E+05 F= -.31050013E+05 EK= 0.38735E+04 SP= 0.00E+00 SK= 0.00E+00
     1150 T=  4156. E= -.27176326E+05 F= -.30966736E+05 EK= 0.37904E+04 SP= 0.00E+00 SK= 0.00E+00
     1160 T=  4187. E= -.27176517E+05 F= -.30994862E+05 EK= 0.38183E+04 SP= 0.00E+00 SK= 0.00E+00
     1170 T=  4176. E= -.27176416E+05 F= -.30984282E+05 EK= 0.38079E+04 SP= 0.00E+00 SK= 0.00E+00
     1180 T=  4209. E= -.27176654E+05 F= -.31014959E+05 EK= 0.38383E+04 SP= 0.00E+00 SK= 0.00E+00
     1190 T=  4168. E= -.27176427E+05 F= -.30977070E+05 EK= 0.38006E+04 SP= 0.00E+00 SK= 0.00E+00
     1200 T=  4229. E= -.27176643E+05 F= -.31033264E+05 EK= 0.38566E+04 SP= 0.00E+00 SK= 0.00E+00
     1210 T=  4191. E= -.27176442E+05 F= -.30998598E+05 EK= 0.38222E+04 SP= 0.00E+00 SK= 0.00E+00
     1220 T=  4196. E= -.27176531E+05 F= -.31003353E+05 EK= 0.38268E+04 SP= 0.00E+00 SK= 0.00E+00
     1230 T=  4175. E= -.27176418E+05 F= -.30983315E+05 EK= 0.38069E+04 SP= 0.00E+00 SK= 0.00E+00
     1240 T=  4211. E= -.27176546E+05 F= -.31016342E+05 EK= 0.38398E+04 SP= 0.00E+00 SK= 0.00E+00
     1250 T=  4199. E= -.27176464E+05 F= -.31006123E+05 EK= 0.38297E+04 SP= 0.00E+00 SK= 0.00E+00
     1260 T=  4212. E= -.27176424E+05 F= -.31017191E+05 EK= 0.38408E+04 SP= 0.00E+00 SK= 0.00E+00
     1270 T=  4195. E= -.27176398E+05 F= -.31002227E+05 EK= 0.38258E+04 SP= 0.00E+00 SK= 0.00E+00
     1280 T=  4191. E= -.27176474E+05 F= -.30998720E+05 EK= 0.38222E+04 SP= 0.00E+00 SK= 0.00E+00
     1290 T=  4200. E= -.27176413E+05 F= -.31006340E+05 EK= 0.38299E+04 SP= 0.00E+00 SK= 0.00E+00
     1300 T=  4213. E= -.27176491E+05 F= -.31018319E+05 EK= 0.38418E+04 SP= 0.00E+00 SK= 0.00E+00
     1310 T=  4218. E= -.27176468E+05 F= -.31023005E+05 EK= 0.38465E+04 SP= 0.00E+00 SK= 0.00E+00
     1320 T=  4250. E= -.27176494E+05 F= -.31052086E+05 EK= 0.38756E+04 SP= 0.00E+00 SK= 0.00E+00
     1330 T=  4281. E= -.27176539E+05 F= -.31080417E+05 EK= 0.39039E+04 SP= 0.00E+00 SK= 0.00E+00
     1340 T=  4261. E= -.27176463E+05 F= -.31062012E+05 EK= 0.38855E+04 SP= 0.00E+00 SK= 0.00E+00
     1350 T=  4263. E= -.27176341E+05 F= -.31063970E+05 EK= 0.38876E+04 SP= 0.00E+00 SK= 0.00E+00
     1360 T=  4275. E= -.27176451E+05 F= -.31074748E+05 EK= 0.38983E+04 SP= 0.00E+00 SK= 0.00E+00
     1370 T=  4228. E= -.27176348E+05 F= -.31032117E+05 EK= 0.38558E+04 SP= 0.00E+00 SK= 0.00E+00
     1380 T=  4209. E= -.27176440E+05 F= -.31014774E+05 EK= 0.38383E+04 SP= 0.00E+00 SK= 0.00E+00
     1390 T=  4193. E= -.27176481E+05 F= -.31000137E+05 EK= 0.38237E+04 SP= 0.00E+00 SK= 0.00E+00
     1400 T=  4176. E= -.27176402E+05 F= -.30984969E+05 EK= 0.38086E+04 SP= 0.00E+00 SK= 0.00E+00
     1410 T=  4146. E= -.27176412E+05 F= -.30957314E+05 EK= 0.37809E+04 SP= 0.00E+00 SK= 0.00E+00
     1420 T=  4123. E= -.27176409E+05 F= -.30936553E+05 EK= 0.37601E+04 SP= 0.00E+00 SK= 0.00E+00
     1430 T=  4184. E= -.27176502E+05 F= -.30992492E+05 EK= 0.38160E+04 SP= 0.00E+00 SK= 0.00E+00
     1440 T=  4224. E= -.27176560E+05 F= -.31028590E+05 EK= 0.38520E+04 SP= 0.00E+00 SK= 0.00E+00
     1450 T=  4240. E= -.27176473E+05 F= -.31043241E+05 EK= 0.38668E+04 SP= 0.00E+00 SK= 0.00E+00
     1460 T=  4269. E= -.27176599E+05 F= -.31069940E+05 EK= 0.38933E+04 SP= 0.00E+00 SK= 0.00E+00
     1470 T=  4243. E= -.27176529E+05 F= -.31045613E+05 EK= 0.38691E+04 SP= 0.00E+00 SK= 0.00E+00
     1480 T=  4229. E= -.27176546E+05 F= -.31033414E+05 EK= 0.38569E+04 SP= 0.00E+00 SK= 0.00E+00
     1490 T=  4217. E= -.27176554E+05 F= -.31022572E+05 EK= 0.38460E+04 SP= 0.00E+00 SK= 0.00E+00
     1500 T=  4242. E= -.27176500E+05 F= -.31044915E+05 EK= 0.38684E+04 SP= 0.00E+00 SK= 0.00E+00
     1510 T=  4279. E= -.27176650E+05 F= -.31078777E+05 EK= 0.39021E+04 SP= 0.00E+00 SK= 0.00E+00
     1520 T=  4250. E= -.27176609E+05 F= -.31052044E+05 EK= 0.38754E+04 SP= 0.00E+00 SK= 0.00E+00
     1530 T=  4250. E= -.27176684E+05 F= -.31052716E+05 EK= 0.38760E+04 SP= 0.00E+00 SK= 0.00E+00
     1540 T=  4215. E= -.27176588E+05 F= -.31020642E+05 EK= 0.38441E+04 SP= 0.00E+00 SK= 0.00E+00
     1550 T=  4229. E= -.27176725E+05 F= -.31033705E+05 EK= 0.38570E+04 SP= 0.00E+00 SK= 0.00E+00
     1560 T=  4170. E= -.27176611E+05 F= -.30979411E+05 EK= 0.38028E+04 SP= 0.00E+00 SK= 0.00E+00
     1570 T=  4153. E= -.27176592E+05 F= -.30963429E+05 EK= 0.37868E+04 SP= 0.00E+00 SK= 0.00E+00
     1580 T=  4215. E= -.27176640E+05 F= -.31020083E+05 EK= 0.38434E+04 SP= 0.00E+00 SK= 0.00E+00
     1590 T=  4193. E= -.27176476E+05 F= -.30999989E+05 EK= 0.38235E+04 SP= 0.00E+00 SK= 0.00E+00
     1600 T=  4162. E= -.27176501E+05 F= -.30971998E+05 EK= 0.37955E+04 SP= 0.00E+00 SK= 0.00E+00
     1610 T=  4179. E= -.27176519E+05 F= -.30987716E+05 EK= 0.38112E+04 SP= 0.00E+00 SK= 0.00E+00
     1620 T=  4209. E= -.27176555E+05 F= -.31014899E+05 EK= 0.38383E+04 SP= 0.00E+00 SK= 0.00E+00
     1630 T=  4194. E= -.27176450E+05 F= -.31001420E+05 EK= 0.38250E+04 SP= 0.00E+00 SK= 0.00E+00
     1640 T=  4207. E= -.27176605E+05 F= -.31013042E+05 EK= 0.38364E+04 SP= 0.00E+00 SK= 0.00E+00
     1650 T=  4153. E= -.27176594E+05 F= -.30963799E+05 EK= 0.37872E+04 SP= 0.00E+00 SK= 0.00E+00
     1660 T=  4137. E= -.27176583E+05 F= -.30949400E+05 EK= 0.37728E+04 SP= 0.00E+00 SK= 0.00E+00
     1670 T=  4182. E= -.27176659E+05 F= -.30990731E+05 EK= 0.38141E+04 SP= 0.00E+00 SK= 0.00E+00
     1680 T=  4179. E= -.27176655E+05 F= -.30987899E+05 EK= 0.38112E+04 SP= 0.00E+00 SK= 0.00E+00
     1690 T=  4156. E= -.27176597E+05 F= -.30966271E+05 EK= 0.37897E+04 SP= 0.00E+00 SK= 0.00E+00
     1700 T=  4224. E= -.27176726E+05 F= -.31028764E+05 EK= 0.38520E+04 SP= 0.00E+00 SK= 0.00E+00
     1710 T=  4189. E= -.27176524E+05 F= -.30996671E+05 EK= 0.38201E+04 SP= 0.00E+00 SK= 0.00E+00
     1720 T=  4167. E= -.27176630E+05 F= -.30976467E+05 EK= 0.37998E+04 SP= 0.00E+00 SK= 0.00E+00
     1730 T=  4159. E= -.27176619E+05 F= -.30969151E+05 EK= 0.37925E+04 SP= 0.00E+00 SK= 0.00E+00
     1740 T=  4162. E= -.27176615E+05 F= -.30972348E+05 EK= 0.37957E+04 SP= 0.00E+00 SK= 0.00E+00
     1750 T=  4176. E= -.27176563E+05 F= -.30984351E+05 EK= 0.38078E+04 SP= 0.00E+00 SK= 0.00E+00
     1760 T=  4196. E= -.27176680E+05 F= -.31003569E+05 EK= 0.38269E+04 SP= 0.00E+00 SK= 0.00E+00
     1770 T=  4185. E= -.27176596E+05 F= -.30993323E+05 EK= 0.38167E+04 SP= 0.00E+00 SK= 0.00E+00
     1780 T=  4171. E= -.27176579E+05 F= -.30980626E+05 EK= 0.38040E+04 SP= 0.00E+00 SK= 0.00E+00
     1790 T=  4171. E= -.27176586E+05 F= -.30979841E+05 EK= 0.38033E+04 SP= 0.00E+00 SK= 0.00E+00
     1800 T=  4176. E= -.27176446E+05 F= -.30984485E+05 EK= 0.38080E+04 SP= 0.00E+00 SK= 0.00E+00
     1810 T=  4218. E= -.27176609E+05 F= -.31022770E+05 EK= 0.38462E+04 SP= 0.00E+00 SK= 0.00E+00
     1820 T=  4159. E= -.27176418E+05 F= -.30968946E+05 EK= 0.37925E+04 SP= 0.00E+00 SK= 0.00E+00
     1830 T=  4168. E= -.27176594E+05 F= -.30977417E+05 EK= 0.38008E+04 SP= 0.00E+00 SK= 0.00E+00
     1840 T=  4137. E= -.27176435E+05 F= -.30948734E+05 EK= 0.37723E+04 SP= 0.00E+00 SK= 0.00E+00
     1850 T=  4162. E= -.27176494E+05 F= -.30971872E+05 EK= 0.37954E+04 SP= 0.00E+00 SK= 0.00E+00
     1860 T=  4207. E= -.27176543E+05 F= -.31013171E+05 EK= 0.38366E+04 SP= 0.00E+00 SK= 0.00E+00
     1870 T=  4193. E= -.27176384E+05 F= -.31000285E+05 EK= 0.38239E+04 SP= 0.00E+00 SK= 0.00E+00
     1880 T=  4196. E= -.27176460E+05 F= -.31003013E+05 EK= 0.38266E+04 SP= 0.00E+00 SK= 0.00E+00
     1890 T=  4202. E= -.27176336E+05 F= -.31008643E+05 EK= 0.38323E+04 SP= 0.00E+00 SK= 0.00E+00
     1900 T=  4252. E= -.27176384E+05 F= -.31053526E+05 EK= 0.38771E+04 SP= 0.00E+00 SK= 0.00E+00
     1910 T=  4221. E= -.27176419E+05 F= -.31025587E+05 EK= 0.38492E+04 SP= 0.00E+00 SK= 0.00E+00
     1920 T=  4140. E= -.27176306E+05 F= -.30951750E+05 EK= 0.37754E+04 SP= 0.00E+00 SK= 0.00E+00
     1930 T=  4158. E= -.27176433E+05 F= -.30968013E+05 EK= 0.37916E+04 SP= 0.00E+00 SK= 0.00E+00
     1940 T=  4172. E= -.27176387E+05 F= -.30980973E+05 EK= 0.38046E+04 SP= 0.00E+00 SK= 0.00E+00
     1950 T=  4204. E= -.27176571E+05 F= -.31010536E+05 EK= 0.38340E+04 SP= 0.00E+00 SK= 0.00E+00
     1960 T=  4159. E= -.27176425E+05 F= -.30969322E+05 EK= 0.37929E+04 SP= 0.00E+00 SK= 0.00E+00
     1970 T=  4182. E= -.27176559E+05 F= -.30990216E+05 EK= 0.38137E+04 SP= 0.00E+00 SK= 0.00E+00
     1980 T=  4151. E= -.27176455E+05 F= -.30962176E+05 EK= 0.37857E+04 SP= 0.00E+00 SK= 0.00E+00
     1990 T=  4134. E= -.27176567E+05 F= -.30946428E+05 EK= 0.37699E+04 SP= 0.00E+00 SK= 0.00E+00
At line 1940 of file md.f90
Fortran runtime error: Unit number is negative and unit was not already opened with OPEN(NEWUNIT=...)

Error termination. Backtrace:
At line 1940 of file md.f90
Fortran runtime error: Unit number is negative and unit was not already opened with OPEN(NEWUNIT=...)

Error termination. Backtrace:
At line 1940 of file md.f90
Fortran runtime error: Unit number is negative and unit was not already opened with OPEN(NEWUNIT=...)

Error termination. Backtrace:
At line 1940 of file md.f90
Fortran runtime error: Unit number is negative and unit was not already opened with OPEN(NEWUNIT=...)

Error termination. Backtrace:
At line 1940 of file md.f90
Fortran runtime error: Unit number is negative and unit was not already opened with OPEN(NEWUNIT=...)

Error termination. Backtrace:
     2000 T=  4156. E= -.27176567E+05 F= -.30966199E+05 EK= 0.37896E+04 SP= 0.00E+00 SK= 0.00E+00
Rc and Rl:   5.500000  7.321000

Average number of steps between two list updates:  18.35
Average number of atoms in the shell:     0.01
#0  0x7f0287ffcd11 in ???
#1  0x7f0287ffd859 in ???
#2  0x7f0287ffe53f in ???
#3  0x55ea24ae00bc in ???
#4  0x55ea24adb92e in ???
#5  0x7f0287c93082 in __libc_start_main
	at ../csu/libc-start.c:308
#6  0x55ea24adb96d in ???
#7  0xffffffffffffffff in ???
#0  0x7ff4310eed11 in ???
#1  0x7ff4310ef859 in ???
#2  0x7ff4310f053f in ???
#3  0x558a338580bc in ???
#4  0x558a3385392e in ???
#5  0x7ff430d85082 in __libc_start_main
	at ../csu/libc-start.c:308
#6  0x558a3385396d in ???
#7  0xffffffffffffffff in ???
#0  0x7ff925e5ed11 in ???
#1  0x7ff925e5f859 in ???
#2  0x7ff925e6053f in ???
#3  0x55cdbcc7d0bc in ???
#4  0x55cdbcc7892e in ???
#5  0x7ff925af5082 in __libc_start_main
	at ../csu/libc-start.c:308
#6  0x55cdbcc7896d in ???
#7  0xffffffffffffffff in ???
#0  0x7f110dd44d11 in ???
#1  0x7f110dd45859 in ???
#2  0x7f110dd4653f in ???
#3  0x55d6f99ef0bc in ???
#4  0x55d6f99ea92e in ???
#5  0x7f110d9db082 in __libc_start_main
	at ../csu/libc-start.c:308
#6  0x55d6f99ea96d in ???
#7  0xffffffffffffffff in ???
#0  0x7f9fa8cd4d11 in ???
#1  0x7f9fa8cd5859 in ???
#2  0x7f9fa8cd653f in ???
#3  0x5558a28100bc in ???
#4  0x5558a280b92e in ???
#5  0x7f9fa896b082 in __libc_start_main
	at ../csu/libc-start.c:308
#6  0x5558a280b96d in ???
#7  0xffffffffffffffff in ???
