 running on    6 nodes
 distr:  one band on    1 nodes,    6 groups
 md.x 0.99
 POSCAR found :  1 types and     7056 ions
 Random init:        6704       14275
 Random init:        6704       14275
 Random init:        6704       14275
 Random init:        6704       14275
 Random init:        6704       14275
Rc and Rl:   5.500000  7.321000
 TIPO = eam     
 TIPO1 = uknown p
 Using EAM

 EAM parameters: 
 C  =   9.9634  EPS  = 0.2048  A  = 3.5678  M  = 3.127  N  =  6.366  R1 =   5.500000


 ----------------------------------------------------------------------------- 
|                                                                             |
|           W    W    AA    RRRRR   N    N  II  N    N   GGGG   !!!           |
|           W    W   A  A   R    R  NN   N  II  NN   N  G    G  !!!           |
|           W    W  A    A  R    R  N N  N  II  N N  N  G       !!!           |
|           W WW W  AAAAAA  RRRRR   N  N N  II  N  N N  G  GGG   !            |
|           WW  WW  A    A  R   R   N   NN  II  N   NN  G    G                |
|           W    W  A    A  R    R  N    N  II  N    N   GGGG   !!!           |
|                                                                             |
|      VASP found  21165 degrees of freedom                                   |
|      the temperature will equal 2*E(kin)/ (degrees of freedom)              |
|      this differs from previous releases, where T was 2*E(kin)/(3 NIONS).   |
|      The new definition is more consistent                                  |
|                                                                             |
 ----------------------------------------------------------------------------- 

 Random init:        6704       14275
 alloco spazio per displ
       10 T=  2472. E= -.30844711E+05 F= -.33099225E+05 EK= 0.22545E+04 SP= 0.00E+00 SK= 0.00E+00
       20 T=  2413. E= -.30844578E+05 F= -.33045040E+05 EK= 0.22005E+04 SP= 0.00E+00 SK= 0.00E+00
       30 T=  2417. E= -.30844630E+05 F= -.33049230E+05 EK= 0.22046E+04 SP= 0.00E+00 SK= 0.00E+00
       40 T=  2433. E= -.30844608E+05 F= -.33063676E+05 EK= 0.22191E+04 SP= 0.00E+00 SK= 0.00E+00
       50 T=  2441. E= -.30844646E+05 F= -.33071120E+05 EK= 0.22265E+04 SP= 0.00E+00 SK= 0.00E+00
       60 T=  2424. E= -.30844607E+05 F= -.33055494E+05 EK= 0.22109E+04 SP= 0.00E+00 SK= 0.00E+00
       70 T=  2410. E= -.30844610E+05 F= -.33042465E+05 EK= 0.21979E+04 SP= 0.00E+00 SK= 0.00E+00
       80 T=  2422. E= -.30844677E+05 F= -.33053777E+05 EK= 0.22091E+04 SP= 0.00E+00 SK= 0.00E+00
       90 T=  2412. E= -.30844625E+05 F= -.33044024E+05 EK= 0.21994E+04 SP= 0.00E+00 SK= 0.00E+00
      100 T=  2416. E= -.30844632E+05 F= -.33048145E+05 EK= 0.22035E+04 SP= 0.00E+00 SK= 0.00E+00
      110 T=  2433. E= -.30844601E+05 F= -.33063650E+05 EK= 0.22190E+04 SP= 0.00E+00 SK= 0.00E+00
      120 T=  2458. E= -.30844618E+05 F= -.33086417E+05 EK= 0.22418E+04 SP= 0.00E+00 SK= 0.00E+00
      130 T=  2447. E= -.30844601E+05 F= -.33076190E+05 EK= 0.22316E+04 SP= 0.00E+00 SK= 0.00E+00
      140 T=  2434. E= -.30844620E+05 F= -.33064300E+05 EK= 0.22197E+04 SP= 0.00E+00 SK= 0.00E+00
      150 T=  2426. E= -.30844647E+05 F= -.33056788E+05 EK= 0.22121E+04 SP= 0.00E+00 SK= 0.00E+00
      160 T=  2401. E= -.30844608E+05 F= -.33033803E+05 EK= 0.21892E+04 SP= 0.00E+00 SK= 0.00E+00
      170 T=  2420. E= -.30844667E+05 F= -.33051820E+05 EK= 0.22072E+04 SP= 0.00E+00 SK= 0.00E+00
      180 T=  2429. E= -.30844645E+05 F= -.33059629E+05 EK= 0.22150E+04 SP= 0.00E+00 SK= 0.00E+00
      190 T=  2416. E= -.30844610E+05 F= -.33047709E+05 EK= 0.22031E+04 SP= 0.00E+00 SK= 0.00E+00
      200 T=  2440. E= -.30844648E+05 F= -.33070065E+05 EK= 0.22254E+04 SP= 0.00E+00 SK= 0.00E+00
      210 T=  2448. E= -.30844620E+05 F= -.33077270E+05 EK= 0.22326E+04 SP= 0.00E+00 SK= 0.00E+00
      220 T=  2430. E= -.30844557E+05 F= -.33060981E+05 EK= 0.22164E+04 SP= 0.00E+00 SK= 0.00E+00
      230 T=  2437. E= -.30844584E+05 F= -.33066674E+05 EK= 0.22221E+04 SP= 0.00E+00 SK= 0.00E+00
      240 T=  2425. E= -.30844604E+05 F= -.33056222E+05 EK= 0.22116E+04 SP= 0.00E+00 SK= 0.00E+00
      250 T=  2402. E= -.30844525E+05 F= -.33034624E+05 EK= 0.21901E+04 SP= 0.00E+00 SK= 0.00E+00
      260 T=  2437. E= -.30844587E+05 F= -.33067111E+05 EK= 0.22225E+04 SP= 0.00E+00 SK= 0.00E+00
      270 T=  2450. E= -.30844633E+05 F= -.33078863E+05 EK= 0.22342E+04 SP= 0.00E+00 SK= 0.00E+00
      280 T=  2416. E= -.30844582E+05 F= -.33048190E+05 EK= 0.22036E+04 SP= 0.00E+00 SK= 0.00E+00
      290 T=  2408. E= -.30844551E+05 F= -.33040539E+05 EK= 0.21960E+04 SP= 0.00E+00 SK= 0.00E+00
      300 T=  2443. E= -.30844603E+05 F= -.33072277E+05 EK= 0.22277E+04 SP= 0.00E+00 SK= 0.00E+00
      310 T=  2435. E= -.30844545E+05 F= -.33064906E+05 EK= 0.22204E+04 SP= 0.00E+00 SK= 0.00E+00
      320 T=  2441. E= -.30844629E+05 F= -.33070902E+05 EK= 0.22263E+04 SP= 0.00E+00 SK= 0.00E+00
      330 T=  2420. E= -.30844608E+05 F= -.33051206E+05 EK= 0.22066E+04 SP= 0.00E+00 SK= 0.00E+00
      340 T=  2397. E= -.30844565E+05 F= -.33030146E+05 EK= 0.21856E+04 SP= 0.00E+00 SK= 0.00E+00
      350 T=  2405. E= -.30844580E+05 F= -.33038090E+05 EK= 0.21935E+04 SP= 0.00E+00 SK= 0.00E+00
      360 T=  2415. E= -.30844551E+05 F= -.33046677E+05 EK= 0.22021E+04 SP= 0.00E+00 SK= 0.00E+00
      370 T=  2420. E= -.30844492E+05 F= -.33051653E+05 EK= 0.22072E+04 SP= 0.00E+00 SK= 0.00E+00
      380 T=  2456. E= -.30844557E+05 F= -.33084622E+05 EK= 0.22401E+04 SP= 0.00E+00 SK= 0.00E+00
      390 T=  2450. E= -.30844472E+05 F= -.33078375E+05 EK= 0.22339E+04 SP= 0.00E+00 SK= 0.00E+00
      400 T=  2451. E= -.30844532E+05 F= -.33079838E+05 EK= 0.22353E+04 SP= 0.00E+00 SK= 0.00E+00
      410 T=  2430. E= -.30844458E+05 F= -.33060048E+05 EK= 0.22156E+04 SP= 0.00E+00 SK= 0.00E+00
      420 T=  2401. E= -.30844468E+05 F= -.33034036E+05 EK= 0.21896E+04 SP= 0.00E+00 SK= 0.00E+00
      430 T=  2383. E= -.30844411E+05 F= -.33017264E+05 EK= 0.21729E+04 SP= 0.00E+00 SK= 0.00E+00
      440 T=  2401. E= -.30844382E+05 F= -.33033585E+05 EK= 0.21892E+04 SP= 0.00E+00 SK= 0.00E+00
      450 T=  2429. E= -.30844422E+05 F= -.33059297E+05 EK= 0.22149E+04 SP= 0.00E+00 SK= 0.00E+00
      460 T=  2425. E= -.30844366E+05 F= -.33055875E+05 EK= 0.22115E+04 SP= 0.00E+00 SK= 0.00E+00
      470 T=  2430. E= -.30844375E+05 F= -.33060446E+05 EK= 0.22161E+04 SP= 0.00E+00 SK= 0.00E+00
      480 T=  2438. E= -.30844373E+05 F= -.33068080E+05 EK= 0.22237E+04 SP= 0.00E+00 SK= 0.00E+00
      490 T=  2443. E= -.30844375E+05 F= -.33072393E+05 EK= 0.22280E+04 SP= 0.00E+00 SK= 0.00E+00
      500 T=  2422. E= -.30844309E+05 F= -.33052856E+05 EK= 0.22085E+04 SP= 0.00E+00 SK= 0.00E+00
      510 T=  2430. E= -.30844367E+05 F= -.33060489E+05 EK= 0.22161E+04 SP= 0.00E+00 SK= 0.00E+00
      520 T=  2413. E= -.30844330E+05 F= -.33044985E+05 EK= 0.22007E+04 SP= 0.00E+00 SK= 0.00E+00
      530 T=  2410. E= -.30844312E+05 F= -.33042076E+05 EK= 0.21978E+04 SP= 0.00E+00 SK= 0.00E+00
      540 T=  2427. E= -.30844343E+05 F= -.33057313E+05 EK= 0.22130E+04 SP= 0.00E+00 SK= 0.00E+00
      550 T=  2429. E= -.30844296E+05 F= -.33059443E+05 EK= 0.22151E+04 SP= 0.00E+00 SK= 0.00E+00
      560 T=  2417. E= -.30844262E+05 F= -.33048644E+05 EK= 0.22044E+04 SP= 0.00E+00 SK= 0.00E+00
      570 T=  2428. E= -.30844308E+05 F= -.33058679E+05 EK= 0.22144E+04 SP= 0.00E+00 SK= 0.00E+00
      580 T=  2429. E= -.30844273E+05 F= -.33059108E+05 EK= 0.22148E+04 SP= 0.00E+00 SK= 0.00E+00
      590 T=  2437. E= -.30844299E+05 F= -.33066363E+05 EK= 0.22221E+04 SP= 0.00E+00 SK= 0.00E+00
      600 T=  2442. E= -.30844276E+05 F= -.33070831E+05 EK= 0.22266E+04 SP= 0.00E+00 SK= 0.00E+00
      610 T=  2429. E= -.30844257E+05 F= -.33058892E+05 EK= 0.22146E+04 SP= 0.00E+00 SK= 0.00E+00
      620 T=  2405. E= -.30844198E+05 F= -.33037191E+05 EK= 0.21930E+04 SP= 0.00E+00 SK= 0.00E+00
      630 T=  2424. E= -.30844251E+05 F= -.33054546E+05 EK= 0.22103E+04 SP= 0.00E+00 SK= 0.00E+00
      640 T=  2433. E= -.30844239E+05 F= -.33063337E+05 EK= 0.22191E+04 SP= 0.00E+00 SK= 0.00E+00
      650 T=  2445. E= -.30844237E+05 F= -.33074353E+05 EK= 0.22301E+04 SP= 0.00E+00 SK= 0.00E+00
      660 T=  2451. E= -.30844227E+05 F= -.33079237E+05 EK= 0.22350E+04 SP= 0.00E+00 SK= 0.00E+00
      670 T=  2417. E= -.30844201E+05 F= -.33048348E+05 EK= 0.22041E+04 SP= 0.00E+00 SK= 0.00E+00
      680 T=  2416. E= -.30844195E+05 F= -.33047072E+05 EK= 0.22029E+04 SP= 0.00E+00 SK= 0.00E+00
      690 T=  2443. E= -.30844229E+05 F= -.33072406E+05 EK= 0.22282E+04 SP= 0.00E+00 SK= 0.00E+00
      700 T=  2455. E= -.30844240E+05 F= -.33083190E+05 EK= 0.22389E+04 SP= 0.00E+00 SK= 0.00E+00
      710 T=  2453. E= -.30844278E+05 F= -.33081392E+05 EK= 0.22371E+04 SP= 0.00E+00 SK= 0.00E+00
      720 T=  2423. E= -.30844272E+05 F= -.33053771E+05 EK= 0.22095E+04 SP= 0.00E+00 SK= 0.00E+00
      730 T=  2407. E= -.30844302E+05 F= -.33039060E+05 EK= 0.21948E+04 SP= 0.00E+00 SK= 0.00E+00
      740 T=  2422. E= -.30844352E+05 F= -.33052603E+05 EK= 0.22083E+04 SP= 0.00E+00 SK= 0.00E+00
      750 T=  2412. E= -.30844306E+05 F= -.33043706E+05 EK= 0.21994E+04 SP= 0.00E+00 SK= 0.00E+00
      760 T=  2421. E= -.30844318E+05 F= -.33052144E+05 EK= 0.22078E+04 SP= 0.00E+00 SK= 0.00E+00
      770 T=  2427. E= -.30844274E+05 F= -.33057907E+05 EK= 0.22136E+04 SP= 0.00E+00 SK= 0.00E+00
      780 T=  2437. E= -.30844328E+05 F= -.33067083E+05 EK= 0.22228E+04 SP= 0.00E+00 SK= 0.00E+00
      790 T=  2433. E= -.30844295E+05 F= -.33063055E+05 EK= 0.22188E+04 SP= 0.00E+00 SK= 0.00E+00
      800 T=  2425. E= -.30844292E+05 F= -.33055565E+05 EK= 0.22113E+04 SP= 0.00E+00 SK= 0.00E+00
      810 T=  2425. E= -.30844348E+05 F= -.33055433E+05 EK= 0.22111E+04 SP= 0.00E+00 SK= 0.00E+00
      820 T=  2412. E= -.30844323E+05 F= -.33043682E+05 EK= 0.21994E+04 SP= 0.00E+00 SK= 0.00E+00
      830 T=  2416. E= -.30844311E+05 F= -.33047516E+05 EK= 0.22032E+04 SP= 0.00E+00 SK= 0.00E+00
      840 T=  2420. E= -.30844340E+05 F= -.33051070E+05 EK= 0.22067E+04 SP= 0.00E+00 SK= 0.00E+00
      850 T=  2429. E= -.30844340E+05 F= -.33059110E+05 EK= 0.22148E+04 SP= 0.00E+00 SK= 0.00E+00
      860 T=  2449. E= -.30844352E+05 F= -.33077417E+05 EK= 0.22331E+04 SP= 0.00E+00 SK= 0.00E+00
      870 T=  2446. E= -.30844340E+05 F= -.33075041E+05 EK= 0.22307E+04 SP= 0.00E+00 SK= 0.00E+00
      880 T=  2453. E= -.30844344E+05 F= -.33081009E+05 EK= 0.22367E+04 SP= 0.00E+00 SK= 0.00E+00
      890 T=  2432. E= -.30844325E+05 F= -.33061839E+05 EK= 0.22175E+04 SP= 0.00E+00 SK= 0.00E+00
      900 T=  2418. E= -.30844335E+05 F= -.33049467E+05 EK= 0.22051E+04 SP= 0.00E+00 SK= 0.00E+00
      910 T=  2409. E= -.30844264E+05 F= -.33041299E+05 EK= 0.21970E+04 SP= 0.00E+00 SK= 0.00E+00
      920 T=  2419. E= -.30844223E+05 F= -.33050033E+05 EK= 0.22058E+04 SP= 0.00E+00 SK= 0.00E+00
      930 T=  2444. E= -.30844261E+05 F= -.33072702E+05 EK= 0.22284E+04 SP= 0.00E+00 SK= 0.00E+00
      940 T=  2436. E= -.30844258E+05 F= -.33066085E+05 EK= 0.22218E+04 SP= 0.00E+00 SK= 0.00E+00
      950 T=  2430. E= -.30844316E+05 F= -.33060403E+05 EK= 0.22161E+04 SP= 0.00E+00 SK= 0.00E+00
      960 T=  2416. E= -.30844351E+05 F= -.33047702E+05 EK= 0.22034E+04 SP= 0.00E+00 SK= 0.00E+00
      970 T=  2393. E= -.30844311E+05 F= -.33026479E+05 EK= 0.21822E+04 SP= 0.00E+00 SK= 0.00E+00
      980 T=  2409. E= -.30844372E+05 F= -.33040864E+05 EK= 0.21965E+04 SP= 0.00E+00 SK= 0.00E+00
      990 T=  2435. E= -.30844376E+05 F= -.33065130E+05 EK= 0.22208E+04 SP= 0.00E+00 SK= 0.00E+00
     1000 T=  2445. E= -.30844305E+05 F= -.33073625E+05 EK= 0.22293E+04 SP= 0.00E+00 SK= 0.00E+00
     1010 T=  2441. E= -.30844287E+05 F= -.33070632E+05 EK= 0.22263E+04 SP= 0.00E+00 SK= 0.00E+00
     1020 T=  2423. E= -.30844287E+05 F= -.33053450E+05 EK= 0.22092E+04 SP= 0.00E+00 SK= 0.00E+00
     1030 T=  2393. E= -.30844212E+05 F= -.33026657E+05 EK= 0.21824E+04 SP= 0.00E+00 SK= 0.00E+00
     1040 T=  2419. E= -.30844268E+05 F= -.33050328E+05 EK= 0.22061E+04 SP= 0.00E+00 SK= 0.00E+00
     1050 T=  2420. E= -.30844272E+05 F= -.33051254E+05 EK= 0.22070E+04 SP= 0.00E+00 SK= 0.00E+00
     1060 T=  2406. E= -.30844241E+05 F= -.33038391E+05 EK= 0.21941E+04 SP= 0.00E+00 SK= 0.00E+00
     1070 T=  2440. E= -.30844302E+05 F= -.33069322E+05 EK= 0.22250E+04 SP= 0.00E+00 SK= 0.00E+00
     1080 T=  2460. E= -.30844319E+05 F= -.33087333E+05 EK= 0.22430E+04 SP= 0.00E+00 SK= 0.00E+00
     1090 T=  2427. E= -.30844276E+05 F= -.33057648E+05 EK= 0.22134E+04 SP= 0.00E+00 SK= 0.00E+00
     1100 T=  2409. E= -.30844252E+05 F= -.33040914E+05 EK= 0.21967E+04 SP= 0.00E+00 SK= 0.00E+00
     1110 T=  2425. E= -.30844309E+05 F= -.33055602E+05 EK= 0.22113E+04 SP= 0.00E+00 SK= 0.00E+00
     1120 T=  2420. E= -.30844283E+05 F= -.33050900E+05 EK= 0.22066E+04 SP= 0.00E+00 SK= 0.00E+00
     1130 T=  2434. E= -.30844304E+05 F= -.33064401E+05 EK= 0.22201E+04 SP= 0.00E+00 SK= 0.00E+00
     1140 T=  2442. E= -.30844262E+05 F= -.33071194E+05 EK= 0.22269E+04 SP= 0.00E+00 SK= 0.00E+00
     1150 T=  2440. E= -.30844266E+05 F= -.33069506E+05 EK= 0.22252E+04 SP= 0.00E+00 SK= 0.00E+00
     1160 T=  2398. E= -.30844203E+05 F= -.33031019E+05 EK= 0.21868E+04 SP= 0.00E+00 SK= 0.00E+00
     1170 T=  2391. E= -.30844219E+05 F= -.33025009E+05 EK= 0.21808E+04 SP= 0.00E+00 SK= 0.00E+00
     1180 T=  2454. E= -.30844339E+05 F= -.33081984E+05 EK= 0.22376E+04 SP= 0.00E+00 SK= 0.00E+00
     1190 T=  2464. E= -.30844310E+05 F= -.33091131E+05 EK= 0.22468E+04 SP= 0.00E+00 SK= 0.00E+00
     1200 T=  2436. E= -.30844327E+05 F= -.33066242E+05 EK= 0.22219E+04 SP= 0.00E+00 SK= 0.00E+00
     1210 T=  2409. E= -.30844323E+05 F= -.33041439E+05 EK= 0.21971E+04 SP= 0.00E+00 SK= 0.00E+00
     1220 T=  2419. E= -.30844331E+05 F= -.33050243E+05 EK= 0.22059E+04 SP= 0.00E+00 SK= 0.00E+00
     1230 T=  2442. E= -.30844360E+05 F= -.33070991E+05 EK= 0.22266E+04 SP= 0.00E+00 SK= 0.00E+00
     1240 T=  2417. E= -.30844301E+05 F= -.33048826E+05 EK= 0.22045E+04 SP= 0.00E+00 SK= 0.00E+00
     1250 T=  2416. E= -.30844302E+05 F= -.33047159E+05 EK= 0.22029E+04 SP= 0.00E+00 SK= 0.00E+00
     1260 T=  2430. E= -.30844278E+05 F= -.33060432E+05 EK= 0.22162E+04 SP= 0.00E+00 SK= 0.00E+00
     1270 T=  2443. E= -.30844300E+05 F= -.33071937E+05 EK= 0.22276E+04 SP= 0.00E+00 SK= 0.00E+00
     1280 T=  2419. E= -.30844291E+05 F= -.33050353E+05 EK= 0.22061E+04 SP= 0.00E+00 SK= 0.00E+00
     1290 T=  2380. E= -.30844225E+05 F= -.33014226E+05 EK= 0.21700E+04 SP= 0.00E+00 SK= 0.00E+00
     1300 T=  2406. E= -.30844253E+05 F= -.33038462E+05 EK= 0.21942E+04 SP= 0.00E+00 SK= 0.00E+00
     1310 T=  2444. E= -.30844303E+05 F= -.33072653E+05 EK= 0.22283E+04 SP= 0.00E+00 SK= 0.00E+00
     1320 T=  2443. E= -.30844293E+05 F= -.33072238E+05 EK= 0.22279E+04 SP= 0.00E+00 SK= 0.00E+00
     1330 T=  2436. E= -.30844274E+05 F= -.33065356E+05 EK= 0.22211E+04 SP= 0.00E+00 SK= 0.00E+00
     1340 T=  2484. E= -.30844389E+05 F= -.33109279E+05 EK= 0.22649E+04 SP= 0.00E+00 SK= 0.00E+00
     1350 T=  2462. E= -.30844382E+05 F= -.33089549E+05 EK= 0.22452E+04 SP= 0.00E+00 SK= 0.00E+00
     1360 T=  2373. E= -.30844195E+05 F= -.33008020E+05 EK= 0.21638E+04 SP= 0.00E+00 SK= 0.00E+00
     1370 T=  2399. E= -.30844286E+05 F= -.33032467E+05 EK= 0.21882E+04 SP= 0.00E+00 SK= 0.00E+00
     1380 T=  2443. E= -.30844337E+05 F= -.33071837E+05 EK= 0.22275E+04 SP= 0.00E+00 SK= 0.00E+00
     1390 T=  2422. E= -.30844212E+05 F= -.33053020E+05 EK= 0.22088E+04 SP= 0.00E+00 SK= 0.00E+00
     1400 T=  2446. E= -.30844312E+05 F= -.33075313E+05 EK= 0.22310E+04 SP= 0.00E+00 SK= 0.00E+00
     1410 T=  2444. E= -.30844262E+05 F= -.33072744E+05 EK= 0.22285E+04 SP= 0.00E+00 SK= 0.00E+00
     1420 T=  2432. E= -.30844223E+05 F= -.33062313E+05 EK= 0.22181E+04 SP= 0.00E+00 SK= 0.00E+00
     1430 T=  2437. E= -.30844291E+05 F= -.33066613E+05 EK= 0.22223E+04 SP= 0.00E+00 SK= 0.00E+00
     1440 T=  2423. E= -.30844279E+05 F= -.33053658E+05 EK= 0.22094E+04 SP= 0.00E+00 SK= 0.00E+00
     1450 T=  2413. E= -.30844306E+05 F= -.33045167E+05 EK= 0.22009E+04 SP= 0.00E+00 SK= 0.00E+00
     1460 T=  2410. E= -.30844335E+05 F= -.33041900E+05 EK= 0.21976E+04 SP= 0.00E+00 SK= 0.00E+00
     1470 T=  2411. E= -.30844274E+05 F= -.33042734E+05 EK= 0.21985E+04 SP= 0.00E+00 SK= 0.00E+00
     1480 T=  2445. E= -.30844301E+05 F= -.33074385E+05 EK= 0.22301E+04 SP= 0.00E+00 SK= 0.00E+00
     1490 T=  2469. E= -.30844377E+05 F= -.33096063E+05 EK= 0.22517E+04 SP= 0.00E+00 SK= 0.00E+00
     1500 T=  2415. E= -.30844271E+05 F= -.33047019E+05 EK= 0.22027E+04 SP= 0.00E+00 SK= 0.00E+00
     1510 T=  2396. E= -.30844294E+05 F= -.33028932E+05 EK= 0.21846E+04 SP= 0.00E+00 SK= 0.00E+00
     1520 T=  2410. E= -.30844266E+05 F= -.33041930E+05 EK= 0.21977E+04 SP= 0.00E+00 SK= 0.00E+00
     1530 T=  2449. E= -.30844357E+05 F= -.33077318E+05 EK= 0.22330E+04 SP= 0.00E+00 SK= 0.00E+00
     1540 T=  2426. E= -.30844274E+05 F= -.33056908E+05 EK= 0.22126E+04 SP= 0.00E+00 SK= 0.00E+00
     1550 T=  2410. E= -.30844280E+05 F= -.33042385E+05 EK= 0.21981E+04 SP= 0.00E+00 SK= 0.00E+00
     1560 T=  2437. E= -.30844303E+05 F= -.33066267E+05 EK= 0.22220E+04 SP= 0.00E+00 SK= 0.00E+00
     1570 T=  2441. E= -.30844294E+05 F= -.33070323E+05 EK= 0.22260E+04 SP= 0.00E+00 SK= 0.00E+00
     1580 T=  2418. E= -.30844271E+05 F= -.33049606E+05 EK= 0.22053E+04 SP= 0.00E+00 SK= 0.00E+00
     1590 T=  2429. E= -.30844297E+05 F= -.33059235E+05 EK= 0.22149E+04 SP= 0.00E+00 SK= 0.00E+00
     1600 T=  2452. E= -.30844324E+05 F= -.33080364E+05 EK= 0.22360E+04 SP= 0.00E+00 SK= 0.00E+00
     1610 T=  2439. E= -.30844320E+05 F= -.33068872E+05 EK= 0.22246E+04 SP= 0.00E+00 SK= 0.00E+00
     1620 T=  2411. E= -.30844296E+05 F= -.33043199E+05 EK= 0.21989E+04 SP= 0.00E+00 SK= 0.00E+00
     1630 T=  2402. E= -.30844265E+05 F= -.33034330E+05 EK= 0.21901E+04 SP= 0.00E+00 SK= 0.00E+00
     1640 T=  2429. E= -.30844306E+05 F= -.33059805E+05 EK= 0.22155E+04 SP= 0.00E+00 SK= 0.00E+00
     1650 T=  2450. E= -.30844232E+05 F= -.33078820E+05 EK= 0.22346E+04 SP= 0.00E+00 SK= 0.00E+00
     1660 T=  2477. E= -.30844316E+05 F= -.33102833E+05 EK= 0.22585E+04 SP= 0.00E+00 SK= 0.00E+00
     1670 T=  2430. E= -.30844223E+05 F= -.33060619E+05 EK= 0.22164E+04 SP= 0.00E+00 SK= 0.00E+00
     1680 T=  2430. E= -.30844291E+05 F= -.33060707E+05 EK= 0.22164E+04 SP= 0.00E+00 SK= 0.00E+00
     1690 T=  2424. E= -.30844310E+05 F= -.33054490E+05 EK= 0.22102E+04 SP= 0.00E+00 SK= 0.00E+00
     1700 T=  2398. E= -.30844262E+05 F= -.33030782E+05 EK= 0.21865E+04 SP= 0.00E+00 SK= 0.00E+00
     1710 T=  2422. E= -.30844273E+05 F= -.33053140E+05 EK= 0.22089E+04 SP= 0.00E+00 SK= 0.00E+00
     1720 T=  2459. E= -.30844307E+05 F= -.33086869E+05 EK= 0.22426E+04 SP= 0.00E+00 SK= 0.00E+00
     1730 T=  2450. E= -.30844287E+05 F= -.33078898E+05 EK= 0.22346E+04 SP= 0.00E+00 SK= 0.00E+00
     1740 T=  2428. E= -.30844249E+05 F= -.33058271E+05 EK= 0.22140E+04 SP= 0.00E+00 SK= 0.00E+00
     1750 T=  2439. E= -.30844307E+05 F= -.33068458E+05 EK= 0.22242E+04 SP= 0.00E+00 SK= 0.00E+00
     1760 T=  2424. E= -.30844281E+05 F= -.33054520E+05 EK= 0.22102E+04 SP= 0.00E+00 SK= 0.00E+00
     1770 T=  2415. E= -.30844248E+05 F= -.33046852E+05 EK= 0.22026E+04 SP= 0.00E+00 SK= 0.00E+00
     1780 T=  2439. E= -.30844304E+05 F= -.33068849E+05 EK= 0.22245E+04 SP= 0.00E+00 SK= 0.00E+00
     1790 T=  2420. E= -.30844243E+05 F= -.33050864E+05 EK= 0.22066E+04 SP= 0.00E+00 SK= 0.00E+00
     1800 T=  2403. E= -.30844232E+05 F= -.33036005E+05 EK= 0.21918E+04 SP= 0.00E+00 SK= 0.00E+00
     1810 T=  2424. E= -.30844297E+05 F= -.33055094E+05 EK= 0.22108E+04 SP= 0.00E+00 SK= 0.00E+00
     1820 T=  2448. E= -.30844273E+05 F= -.33076264E+05 EK= 0.22320E+04 SP= 0.00E+00 SK= 0.00E+00
     1830 T=  2456. E= -.30844315E+05 F= -.33083645E+05 EK= 0.22393E+04 SP= 0.00E+00 SK= 0.00E+00
     1840 T=  2430. E= -.30844281E+05 F= -.33059963E+05 EK= 0.22157E+04 SP= 0.00E+00 SK= 0.00E+00
     1850 T=  2421. E= -.30844263E+05 F= -.33052159E+05 EK= 0.22079E+04 SP= 0.00E+00 SK= 0.00E+00
     1860 T=  2431. E= -.30844323E+05 F= -.33061065E+05 EK= 0.22167E+04 SP= 0.00E+00 SK= 0.00E+00
     1870 T=  2408. E= -.30844203E+05 F= -.33039931E+05 EK= 0.21957E+04 SP= 0.00E+00 SK= 0.00E+00
     1880 T=  2436. E= -.30844326E+05 F= -.33065768E+05 EK= 0.22214E+04 SP= 0.00E+00 SK= 0.00E+00
     1890 T=  2415. E= -.30844227E+05 F= -.33046138E+05 EK= 0.22019E+04 SP= 0.00E+00 SK= 0.00E+00
     1900 T=  2412. E= -.30844225E+05 F= -.33043669E+05 EK= 0.21994E+04 SP= 0.00E+00 SK= 0.00E+00
     1910 T=  2433. E= -.30844311E+05 F= -.33062814E+05 EK= 0.22185E+04 SP= 0.00E+00 SK= 0.00E+00
     1920 T=  2412. E= -.30844212E+05 F= -.33043696E+05 EK= 0.21995E+04 SP= 0.00E+00 SK= 0.00E+00
     1930 T=  2432. E= -.30844271E+05 F= -.33061910E+05 EK= 0.22176E+04 SP= 0.00E+00 SK= 0.00E+00
     1940 T=  2447. E= -.30844279E+05 F= -.33075635E+05 EK= 0.22314E+04 SP= 0.00E+00 SK= 0.00E+00
     1950 T=  2436. E= -.30844274E+05 F= -.33065379E+05 EK= 0.22211E+04 SP= 0.00E+00 SK= 0.00E+00
     1960 T=  2413. E= -.30844241E+05 F= -.33044484E+05 EK= 0.22002E+04 SP= 0.00E+00 SK= 0.00E+00
     1970 T=  2425. E= -.30844216E+05 F= -.33056066E+05 EK= 0.22119E+04 SP= 0.00E+00 SK= 0.00E+00
     1980 T=  2447. E= -.30844252E+05 F= -.33075814E+05 EK= 0.22316E+04 SP= 0.00E+00 SK= 0.00E+00
     1990 T=  2419. E= -.30844202E+05 F= -.33050168E+05 EK= 0.22060E+04 SP= 0.00E+00 SK= 0.00E+00
At line 1940 of file md.f90
Fortran runtime error: Unit number is negative and unit was not already opened with OPEN(NEWUNIT=...)

Error termination. Backtrace:
At line 1940 of file md.f90
Fortran runtime error: Unit number is negative and unit was not already opened with OPEN(NEWUNIT=...)

Error termination. Backtrace:
At line 1940 of file md.f90
Fortran runtime error: Unit number is negative and unit was not already opened with OPEN(NEWUNIT=...)

Error termination. Backtrace:
At line 1940 of file md.f90
Fortran runtime error: Unit number is negative and unit was not already opened with OPEN(NEWUNIT=...)

Error termination. Backtrace:
At line 1940 of file md.f90
Fortran runtime error: Unit number is negative and unit was not already opened with OPEN(NEWUNIT=...)

Error termination. Backtrace:
     2000 T=  2389. E= -.30844143E+05 F= -.33023071E+05 EK= 0.21789E+04 SP= 0.00E+00 SK= 0.00E+00
Rc and Rl:   5.500000  7.321000

Average number of steps between two list updates:  25.32
Average number of atoms in the shell:     0.01
#0  0x7fc548c28d11 in ???
#1  0x7fc548c29859 in ???
#2  0x7fc548c2a53f in ???
#3  0x55c6aced90bc in ???
#4  0x55c6aced492e in ???
#5  0x7fc5488bf082 in __libc_start_main
	at ../csu/libc-start.c:308
#6  0x55c6aced496d in ???
#7  0xffffffffffffffff in ???
#0  0x7f349f2efd11 in ???
#1  0x7f349f2f0859 in ???
#2  0x7f349f2f153f in ???
#3  0x559f64cf70bc in ???
#4  0x559f64cf292e in ???
#5  0x7f349ef86082 in __libc_start_main
	at ../csu/libc-start.c:308
#6  0x559f64cf296d in ???
#7  0xffffffffffffffff in ???
#0  0x7f9745084d11 in ???
#1  0x7f9745085859 in ???
#2  0x7f974508653f in ???
#3  0x55d19044d0bc in ???
#4  0x55d19044892e in ???
#5  0x7f9744d1b082 in __libc_start_main
	at ../csu/libc-start.c:308
#6  0x55d19044896d in ???
#7  0xffffffffffffffff in ???
#0  0x7f21c402dd11 in ???
#1  0x7f21c402e859 in ???
#2  0x7f21c402f53f in ???
#3  0x559695fd50bc in ???
#4  0x559695fd092e in ???
#5  0x7f21c3cc4082 in __libc_start_main
	at ../csu/libc-start.c:308
#6  0x559695fd096d in ???
#7  0xffffffffffffffff in ???
#0  0x7f6fada7dd11 in ???
#1  0x7f6fada7e859 in ???
#2  0x7f6fada7f53f in ???
#3  0x558c0d3ff0bc in ???
#4  0x558c0d3fa92e in ???
#5  0x7f6fad714082 in __libc_start_main
	at ../csu/libc-start.c:308
#6  0x558c0d3fa96d in ???
#7  0xffffffffffffffff in ???
