 running on    6 nodes
 distr:  one band on    1 nodes,    6 groups
 md.x 0.99
 POSCAR found :  1 types and     7056 ions
Rc and Rl:   5.500000  7.321000
 TIPO = eam     
 TIPO1 = uknown p
 Using EAM

 EAM parameters: 
 C  =   9.9634  EPS  = 0.2048  A  = 3.5678  M  = 3.127  N  =  6.366  R1 =   5.500000


 ----------------------------------------------------------------------------- 
|                                                                             |
|           W    W    AA    RRRRR   N    N  II  N    N   GGGG   !!!           |
|           W    W   A  A   R    R  NN   N  II  NN   N  G    G  !!!           |
|           W    W  A    A  R    R  N N  N  II  N N  N  G       !!!           |
|           W WW W  AAAAAA  RRRRR   N  N N  II  N  N N  G  GGG   !            |
|           WW  WW  A    A  R   R   N   NN  II  N   NN  G    G                |
|           W    W  A    A  R    R  N    N  II  N    N   GGGG   !!!           |
|                                                                             |
|      VASP found  21165 degrees of freedom                                   |
|      the temperature will equal 2*E(kin)/ (degrees of freedom)              |
|      this differs from previous releases, where T was 2*E(kin)/(3 NIONS).   |
|      The new definition is more consistent                                  |
|                                                                             |
 ----------------------------------------------------------------------------- 

 Random init:       15321       22892
 Random init:       15321       22892
 Random init:       15321       22892
 Random init:       15321       22892
 Random init:       15321       22892
 Random init:       15321       22892
 alloco spazio per displ
       10 T=  4435. E= -.27205990E+05 F= -.31250576E+05 EK= 0.40446E+04 SP= 0.00E+00 SK= 0.00E+00
       20 T=  4297. E= -.27205712E+05 F= -.31123847E+05 EK= 0.39181E+04 SP= 0.00E+00 SK= 0.00E+00
       30 T=  4281. E= -.27205901E+05 F= -.31109946E+05 EK= 0.39040E+04 SP= 0.00E+00 SK= 0.00E+00
       40 T=  4221. E= -.27205717E+05 F= -.31054824E+05 EK= 0.38491E+04 SP= 0.00E+00 SK= 0.00E+00
       50 T=  4225. E= -.27205921E+05 F= -.31058428E+05 EK= 0.38525E+04 SP= 0.00E+00 SK= 0.00E+00
       60 T=  4227. E= -.27205841E+05 F= -.31060698E+05 EK= 0.38549E+04 SP= 0.00E+00 SK= 0.00E+00
       70 T=  4276. E= -.27205917E+05 F= -.31105716E+05 EK= 0.38998E+04 SP= 0.00E+00 SK= 0.00E+00
       80 T=  4262. E= -.27205860E+05 F= -.31092371E+05 EK= 0.38865E+04 SP= 0.00E+00 SK= 0.00E+00
       90 T=  4255. E= -.27205887E+05 F= -.31086090E+05 EK= 0.38802E+04 SP= 0.00E+00 SK= 0.00E+00
      100 T=  4248. E= -.27205835E+05 F= -.31080028E+05 EK= 0.38742E+04 SP= 0.00E+00 SK= 0.00E+00
      110 T=  4265. E= -.27205896E+05 F= -.31094986E+05 EK= 0.38891E+04 SP= 0.00E+00 SK= 0.00E+00
      120 T=  4228. E= -.27205916E+05 F= -.31061314E+05 EK= 0.38554E+04 SP= 0.00E+00 SK= 0.00E+00
      130 T=  4215. E= -.27205942E+05 F= -.31049569E+05 EK= 0.38436E+04 SP= 0.00E+00 SK= 0.00E+00
      140 T=  4213. E= -.27205899E+05 F= -.31047551E+05 EK= 0.38417E+04 SP= 0.00E+00 SK= 0.00E+00
      150 T=  4197. E= -.27205926E+05 F= -.31032978E+05 EK= 0.38271E+04 SP= 0.00E+00 SK= 0.00E+00
      160 T=  4181. E= -.27205877E+05 F= -.31019055E+05 EK= 0.38132E+04 SP= 0.00E+00 SK= 0.00E+00
      170 T=  4234. E= -.27205942E+05 F= -.31066660E+05 EK= 0.38607E+04 SP= 0.00E+00 SK= 0.00E+00
      180 T=  4264. E= -.27205975E+05 F= -.31094035E+05 EK= 0.38881E+04 SP= 0.00E+00 SK= 0.00E+00
      190 T=  4238. E= -.27206079E+05 F= -.31071130E+05 EK= 0.38651E+04 SP= 0.00E+00 SK= 0.00E+00
      200 T=  4190. E= -.27205941E+05 F= -.31026656E+05 EK= 0.38207E+04 SP= 0.00E+00 SK= 0.00E+00
      210 T=  4214. E= -.27206126E+05 F= -.31049078E+05 EK= 0.38430E+04 SP= 0.00E+00 SK= 0.00E+00
      220 T=  4200. E= -.27205939E+05 F= -.31035990E+05 EK= 0.38301E+04 SP= 0.00E+00 SK= 0.00E+00
      230 T=  4262. E= -.27206066E+05 F= -.31092397E+05 EK= 0.38863E+04 SP= 0.00E+00 SK= 0.00E+00
      240 T=  4263. E= -.27206020E+05 F= -.31093253E+05 EK= 0.38872E+04 SP= 0.00E+00 SK= 0.00E+00
      250 T=  4268. E= -.27206169E+05 F= -.31098752E+05 EK= 0.38926E+04 SP= 0.00E+00 SK= 0.00E+00
      260 T=  4176. E= -.27205960E+05 F= -.31014258E+05 EK= 0.38083E+04 SP= 0.00E+00 SK= 0.00E+00
      270 T=  4194. E= -.27206029E+05 F= -.31030635E+05 EK= 0.38246E+04 SP= 0.00E+00 SK= 0.00E+00
      280 T=  4251. E= -.27206090E+05 F= -.31083034E+05 EK= 0.38769E+04 SP= 0.00E+00 SK= 0.00E+00
      290 T=  4225. E= -.27205905E+05 F= -.31058785E+05 EK= 0.38529E+04 SP= 0.00E+00 SK= 0.00E+00
      300 T=  4210. E= -.27205922E+05 F= -.31045562E+05 EK= 0.38396E+04 SP= 0.00E+00 SK= 0.00E+00
      310 T=  4209. E= -.27206055E+05 F= -.31044616E+05 EK= 0.38386E+04 SP= 0.00E+00 SK= 0.00E+00
      320 T=  4199. E= -.27205913E+05 F= -.31035012E+05 EK= 0.38291E+04 SP= 0.00E+00 SK= 0.00E+00
      330 T=  4261. E= -.27206144E+05 F= -.31092297E+05 EK= 0.38862E+04 SP= 0.00E+00 SK= 0.00E+00
      340 T=  4191. E= -.27205959E+05 F= -.31028331E+05 EK= 0.38224E+04 SP= 0.00E+00 SK= 0.00E+00
      350 T=  4209. E= -.27206098E+05 F= -.31044351E+05 EK= 0.38383E+04 SP= 0.00E+00 SK= 0.00E+00
      360 T=  4223. E= -.27205993E+05 F= -.31057336E+05 EK= 0.38513E+04 SP= 0.00E+00 SK= 0.00E+00
      370 T=  4223. E= -.27206037E+05 F= -.31056961E+05 EK= 0.38509E+04 SP= 0.00E+00 SK= 0.00E+00
      380 T=  4233. E= -.27206050E+05 F= -.31065851E+05 EK= 0.38598E+04 SP= 0.00E+00 SK= 0.00E+00
      390 T=  4205. E= -.27206006E+05 F= -.31040705E+05 EK= 0.38347E+04 SP= 0.00E+00 SK= 0.00E+00
      400 T=  4194. E= -.27205918E+05 F= -.31030460E+05 EK= 0.38245E+04 SP= 0.00E+00 SK= 0.00E+00
      410 T=  4211. E= -.27206059E+05 F= -.31046075E+05 EK= 0.38400E+04 SP= 0.00E+00 SK= 0.00E+00
      420 T=  4182. E= -.27205846E+05 F= -.31019383E+05 EK= 0.38135E+04 SP= 0.00E+00 SK= 0.00E+00
      430 T=  4249. E= -.27205904E+05 F= -.31080725E+05 EK= 0.38748E+04 SP= 0.00E+00 SK= 0.00E+00
      440 T=  4233. E= -.27205778E+05 F= -.31065817E+05 EK= 0.38600E+04 SP= 0.00E+00 SK= 0.00E+00
      450 T=  4208. E= -.27205766E+05 F= -.31042794E+05 EK= 0.38370E+04 SP= 0.00E+00 SK= 0.00E+00
      460 T=  4215. E= -.27205737E+05 F= -.31049697E+05 EK= 0.38440E+04 SP= 0.00E+00 SK= 0.00E+00
      470 T=  4246. E= -.27205754E+05 F= -.31078138E+05 EK= 0.38724E+04 SP= 0.00E+00 SK= 0.00E+00
      480 T=  4265. E= -.27205768E+05 F= -.31094880E+05 EK= 0.38891E+04 SP= 0.00E+00 SK= 0.00E+00
      490 T=  4241. E= -.27205723E+05 F= -.31073045E+05 EK= 0.38673E+04 SP= 0.00E+00 SK= 0.00E+00
      500 T=  4211. E= -.27205690E+05 F= -.31046242E+05 EK= 0.38406E+04 SP= 0.00E+00 SK= 0.00E+00
      510 T=  4207. E= -.27205750E+05 F= -.31042531E+05 EK= 0.38368E+04 SP= 0.00E+00 SK= 0.00E+00
      520 T=  4195. E= -.27205730E+05 F= -.31031018E+05 EK= 0.38253E+04 SP= 0.00E+00 SK= 0.00E+00
      530 T=  4196. E= -.27205737E+05 F= -.31031762E+05 EK= 0.38260E+04 SP= 0.00E+00 SK= 0.00E+00
      540 T=  4202. E= -.27205807E+05 F= -.31037617E+05 EK= 0.38318E+04 SP= 0.00E+00 SK= 0.00E+00
      550 T=  4156. E= -.27205716E+05 F= -.30995760E+05 EK= 0.37900E+04 SP= 0.00E+00 SK= 0.00E+00
      560 T=  4191. E= -.27205818E+05 F= -.31027657E+05 EK= 0.38218E+04 SP= 0.00E+00 SK= 0.00E+00
      570 T=  4145. E= -.27205751E+05 F= -.30986106E+05 EK= 0.37804E+04 SP= 0.00E+00 SK= 0.00E+00
      580 T=  4125. E= -.27205711E+05 F= -.30967534E+05 EK= 0.37618E+04 SP= 0.00E+00 SK= 0.00E+00
      590 T=  4208. E= -.27205976E+05 F= -.31043005E+05 EK= 0.38370E+04 SP= 0.00E+00 SK= 0.00E+00
      600 T=  4155. E= -.27205651E+05 F= -.30995061E+05 EK= 0.37894E+04 SP= 0.00E+00 SK= 0.00E+00
      610 T=  4203. E= -.27205880E+05 F= -.31039031E+05 EK= 0.38332E+04 SP= 0.00E+00 SK= 0.00E+00
      620 T=  4170. E= -.27205803E+05 F= -.31008829E+05 EK= 0.38030E+04 SP= 0.00E+00 SK= 0.00E+00
      630 T=  4166. E= -.27205790E+05 F= -.31004721E+05 EK= 0.37989E+04 SP= 0.00E+00 SK= 0.00E+00
      640 T=  4217. E= -.27205897E+05 F= -.31051741E+05 EK= 0.38458E+04 SP= 0.00E+00 SK= 0.00E+00
      650 T=  4190. E= -.27205987E+05 F= -.31026886E+05 EK= 0.38209E+04 SP= 0.00E+00 SK= 0.00E+00
      660 T=  4105. E= -.27205734E+05 F= -.30948853E+05 EK= 0.37431E+04 SP= 0.00E+00 SK= 0.00E+00
      670 T=  4177. E= -.27205996E+05 F= -.31015314E+05 EK= 0.38093E+04 SP= 0.00E+00 SK= 0.00E+00
      680 T=  4131. E= -.27205812E+05 F= -.30972717E+05 EK= 0.37669E+04 SP= 0.00E+00 SK= 0.00E+00
      690 T=  4165. E= -.27205895E+05 F= -.31004422E+05 EK= 0.37985E+04 SP= 0.00E+00 SK= 0.00E+00
      700 T=  4166. E= -.27205897E+05 F= -.31005436E+05 EK= 0.37995E+04 SP= 0.00E+00 SK= 0.00E+00
      710 T=  4152. E= -.27205951E+05 F= -.30992727E+05 EK= 0.37868E+04 SP= 0.00E+00 SK= 0.00E+00
      720 T=  4126. E= -.27205849E+05 F= -.30968089E+05 EK= 0.37622E+04 SP= 0.00E+00 SK= 0.00E+00
      730 T=  4155. E= -.27205920E+05 F= -.30994776E+05 EK= 0.37889E+04 SP= 0.00E+00 SK= 0.00E+00
      740 T=  4191. E= -.27205954E+05 F= -.31028153E+05 EK= 0.38222E+04 SP= 0.00E+00 SK= 0.00E+00
      750 T=  4149. E= -.27205882E+05 F= -.30989404E+05 EK= 0.37835E+04 SP= 0.00E+00 SK= 0.00E+00
      760 T=  4158. E= -.27206068E+05 F= -.30997623E+05 EK= 0.37916E+04 SP= 0.00E+00 SK= 0.00E+00
      770 T=  4148. E= -.27206038E+05 F= -.30988805E+05 EK= 0.37828E+04 SP= 0.00E+00 SK= 0.00E+00
      780 T=  4194. E= -.27206054E+05 F= -.31030663E+05 EK= 0.38246E+04 SP= 0.00E+00 SK= 0.00E+00
      790 T=  4178. E= -.27206087E+05 F= -.31016380E+05 EK= 0.38103E+04 SP= 0.00E+00 SK= 0.00E+00
      800 T=  4107. E= -.27205952E+05 F= -.30951404E+05 EK= 0.37455E+04 SP= 0.00E+00 SK= 0.00E+00
      810 T=  4124. E= -.27206015E+05 F= -.30966742E+05 EK= 0.37607E+04 SP= 0.00E+00 SK= 0.00E+00
      820 T=  4078. E= -.27205937E+05 F= -.30924431E+05 EK= 0.37185E+04 SP= 0.00E+00 SK= 0.00E+00
      830 T=  4113. E= -.27206068E+05 F= -.30956769E+05 EK= 0.37507E+04 SP= 0.00E+00 SK= 0.00E+00
      840 T=  4135. E= -.27206097E+05 F= -.30976899E+05 EK= 0.37708E+04 SP= 0.00E+00 SK= 0.00E+00
      850 T=  4120. E= -.27206013E+05 F= -.30963257E+05 EK= 0.37572E+04 SP= 0.00E+00 SK= 0.00E+00
      860 T=  4117. E= -.27206073E+05 F= -.30960848E+05 EK= 0.37548E+04 SP= 0.00E+00 SK= 0.00E+00
      870 T=  4103. E= -.27206022E+05 F= -.30947860E+05 EK= 0.37418E+04 SP= 0.00E+00 SK= 0.00E+00
      880 T=  4120. E= -.27205999E+05 F= -.30963316E+05 EK= 0.37573E+04 SP= 0.00E+00 SK= 0.00E+00
      890 T=  4138. E= -.27206077E+05 F= -.30979283E+05 EK= 0.37732E+04 SP= 0.00E+00 SK= 0.00E+00
      900 T=  4072. E= -.27205947E+05 F= -.30919545E+05 EK= 0.37136E+04 SP= 0.00E+00 SK= 0.00E+00
      910 T=  4087. E= -.27205878E+05 F= -.30932711E+05 EK= 0.37268E+04 SP= 0.00E+00 SK= 0.00E+00
      920 T=  4136. E= -.27206011E+05 F= -.30978005E+05 EK= 0.37720E+04 SP= 0.00E+00 SK= 0.00E+00
      930 T=  4118. E= -.27205941E+05 F= -.30961259E+05 EK= 0.37553E+04 SP= 0.00E+00 SK= 0.00E+00
      940 T=  4098. E= -.27205945E+05 F= -.30943239E+05 EK= 0.37373E+04 SP= 0.00E+00 SK= 0.00E+00
      950 T=  4106. E= -.27205987E+05 F= -.30950584E+05 EK= 0.37446E+04 SP= 0.00E+00 SK= 0.00E+00
      960 T=  4098. E= -.27205969E+05 F= -.30942690E+05 EK= 0.37367E+04 SP= 0.00E+00 SK= 0.00E+00
      970 T=  4129. E= -.27205925E+05 F= -.30970981E+05 EK= 0.37651E+04 SP= 0.00E+00 SK= 0.00E+00
      980 T=  4181. E= -.27206145E+05 F= -.31018560E+05 EK= 0.38124E+04 SP= 0.00E+00 SK= 0.00E+00
      990 T=  4066. E= -.27205874E+05 F= -.30913685E+05 EK= 0.37078E+04 SP= 0.00E+00 SK= 0.00E+00
     1000 T=  4110. E= -.27206099E+05 F= -.30954151E+05 EK= 0.37481E+04 SP= 0.00E+00 SK= 0.00E+00
     1010 T=  4078. E= -.27205961E+05 F= -.30924521E+05 EK= 0.37186E+04 SP= 0.00E+00 SK= 0.00E+00
     1020 T=  4101. E= -.27206065E+05 F= -.30946034E+05 EK= 0.37400E+04 SP= 0.00E+00 SK= 0.00E+00
     1030 T=  4122. E= -.27206087E+05 F= -.30964643E+05 EK= 0.37586E+04 SP= 0.00E+00 SK= 0.00E+00
     1040 T=  4098. E= -.27205994E+05 F= -.30943181E+05 EK= 0.37372E+04 SP= 0.00E+00 SK= 0.00E+00
     1050 T=  4123. E= -.27206107E+05 F= -.30965845E+05 EK= 0.37597E+04 SP= 0.00E+00 SK= 0.00E+00
     1060 T=  4081. E= -.27205999E+05 F= -.30927431E+05 EK= 0.37214E+04 SP= 0.00E+00 SK= 0.00E+00
     1070 T=  4077. E= -.27206007E+05 F= -.30923861E+05 EK= 0.37179E+04 SP= 0.00E+00 SK= 0.00E+00
     1080 T=  4121. E= -.27206034E+05 F= -.30964374E+05 EK= 0.37583E+04 SP= 0.00E+00 SK= 0.00E+00
     1090 T=  4122. E= -.27205983E+05 F= -.30964990E+05 EK= 0.37590E+04 SP= 0.00E+00 SK= 0.00E+00
     1100 T=  4070. E= -.27205972E+05 F= -.30917746E+05 EK= 0.37118E+04 SP= 0.00E+00 SK= 0.00E+00
     1110 T=  4085. E= -.27206073E+05 F= -.30931110E+05 EK= 0.37250E+04 SP= 0.00E+00 SK= 0.00E+00
     1120 T=  4063. E= -.27205985E+05 F= -.30911410E+05 EK= 0.37054E+04 SP= 0.00E+00 SK= 0.00E+00
     1130 T=  4042. E= -.27206045E+05 F= -.30892468E+05 EK= 0.36864E+04 SP= 0.00E+00 SK= 0.00E+00
     1140 T=  4018. E= -.27205944E+05 F= -.30869838E+05 EK= 0.36639E+04 SP= 0.00E+00 SK= 0.00E+00
     1150 T=  4050. E= -.27206038E+05 F= -.30899029E+05 EK= 0.36930E+04 SP= 0.00E+00 SK= 0.00E+00
     1160 T=  4069. E= -.27206024E+05 F= -.30916242E+05 EK= 0.37102E+04 SP= 0.00E+00 SK= 0.00E+00
     1170 T=  4086. E= -.27206061E+05 F= -.30932215E+05 EK= 0.37262E+04 SP= 0.00E+00 SK= 0.00E+00
     1180 T=  4082. E= -.27206022E+05 F= -.30928248E+05 EK= 0.37222E+04 SP= 0.00E+00 SK= 0.00E+00
     1190 T=  4073. E= -.27205973E+05 F= -.30920623E+05 EK= 0.37146E+04 SP= 0.00E+00 SK= 0.00E+00
     1200 T=  4100. E= -.27206039E+05 F= -.30944823E+05 EK= 0.37388E+04 SP= 0.00E+00 SK= 0.00E+00
     1210 T=  4087. E= -.27206003E+05 F= -.30933283E+05 EK= 0.37273E+04 SP= 0.00E+00 SK= 0.00E+00
     1220 T=  4048. E= -.27205917E+05 F= -.30897485E+05 EK= 0.36916E+04 SP= 0.00E+00 SK= 0.00E+00
     1230 T=  4055. E= -.27206036E+05 F= -.30904183E+05 EK= 0.36981E+04 SP= 0.00E+00 SK= 0.00E+00
     1240 T=  4031. E= -.27205984E+05 F= -.30882317E+05 EK= 0.36763E+04 SP= 0.00E+00 SK= 0.00E+00
     1250 T=  4017. E= -.27205898E+05 F= -.30868936E+05 EK= 0.36630E+04 SP= 0.00E+00 SK= 0.00E+00
     1260 T=  4072. E= -.27206002E+05 F= -.30919348E+05 EK= 0.37133E+04 SP= 0.00E+00 SK= 0.00E+00
     1270 T=  4027. E= -.27205805E+05 F= -.30877917E+05 EK= 0.36721E+04 SP= 0.00E+00 SK= 0.00E+00
     1280 T=  4029. E= -.27205931E+05 F= -.30880457E+05 EK= 0.36745E+04 SP= 0.00E+00 SK= 0.00E+00
     1290 T=  4041. E= -.27205875E+05 F= -.30891035E+05 EK= 0.36852E+04 SP= 0.00E+00 SK= 0.00E+00
     1300 T=  4055. E= -.27205889E+05 F= -.30903821E+05 EK= 0.36979E+04 SP= 0.00E+00 SK= 0.00E+00
     1310 T=  4074. E= -.27205883E+05 F= -.30920946E+05 EK= 0.37151E+04 SP= 0.00E+00 SK= 0.00E+00
     1320 T=  4073. E= -.27205939E+05 F= -.30920099E+05 EK= 0.37142E+04 SP= 0.00E+00 SK= 0.00E+00
     1330 T=  4032. E= -.27205880E+05 F= -.30882634E+05 EK= 0.36768E+04 SP= 0.00E+00 SK= 0.00E+00
     1340 T=  4005. E= -.27205842E+05 F= -.30858335E+05 EK= 0.36525E+04 SP= 0.00E+00 SK= 0.00E+00
     1350 T=  4022. E= -.27205997E+05 F= -.30874225E+05 EK= 0.36682E+04 SP= 0.00E+00 SK= 0.00E+00
     1360 T=  3995. E= -.27205848E+05 F= -.30849266E+05 EK= 0.36434E+04 SP= 0.00E+00 SK= 0.00E+00
     1370 T=  4044. E= -.27205876E+05 F= -.30893762E+05 EK= 0.36879E+04 SP= 0.00E+00 SK= 0.00E+00
     1380 T=  4091. E= -.27206039E+05 F= -.30936948E+05 EK= 0.37309E+04 SP= 0.00E+00 SK= 0.00E+00
     1390 T=  4001. E= -.27205804E+05 F= -.30854484E+05 EK= 0.36487E+04 SP= 0.00E+00 SK= 0.00E+00
     1400 T=  4009. E= -.27206004E+05 F= -.30861887E+05 EK= 0.36559E+04 SP= 0.00E+00 SK= 0.00E+00
     1410 T=  3995. E= -.27205935E+05 F= -.30849042E+05 EK= 0.36431E+04 SP= 0.00E+00 SK= 0.00E+00
     1420 T=  3986. E= -.27205833E+05 F= -.30840350E+05 EK= 0.36345E+04 SP= 0.00E+00 SK= 0.00E+00
     1430 T=  4037. E= -.27206002E+05 F= -.30887517E+05 EK= 0.36815E+04 SP= 0.00E+00 SK= 0.00E+00
     1440 T=  4002. E= -.27205921E+05 F= -.30855707E+05 EK= 0.36498E+04 SP= 0.00E+00 SK= 0.00E+00
     1450 T=  3956. E= -.27205851E+05 F= -.30813752E+05 EK= 0.36079E+04 SP= 0.00E+00 SK= 0.00E+00
     1460 T=  3981. E= -.27205988E+05 F= -.30836726E+05 EK= 0.36307E+04 SP= 0.00E+00 SK= 0.00E+00
     1470 T=  3986. E= -.27205980E+05 F= -.30841014E+05 EK= 0.36350E+04 SP= 0.00E+00 SK= 0.00E+00
     1480 T=  4039. E= -.27206014E+05 F= -.30889387E+05 EK= 0.36834E+04 SP= 0.00E+00 SK= 0.00E+00
     1490 T=  4047. E= -.27206073E+05 F= -.30896253E+05 EK= 0.36902E+04 SP= 0.00E+00 SK= 0.00E+00
     1500 T=  3996. E= -.27205920E+05 F= -.30850208E+05 EK= 0.36443E+04 SP= 0.00E+00 SK= 0.00E+00
     1510 T=  3994. E= -.27205867E+05 F= -.30848102E+05 EK= 0.36422E+04 SP= 0.00E+00 SK= 0.00E+00
     1520 T=  3994. E= -.27205886E+05 F= -.30848471E+05 EK= 0.36426E+04 SP= 0.00E+00 SK= 0.00E+00
     1530 T=  4039. E= -.27205970E+05 F= -.30889176E+05 EK= 0.36832E+04 SP= 0.00E+00 SK= 0.00E+00
     1540 T=  4044. E= -.27206000E+05 F= -.30894077E+05 EK= 0.36881E+04 SP= 0.00E+00 SK= 0.00E+00
     1550 T=  3977. E= -.27205819E+05 F= -.30832450E+05 EK= 0.36266E+04 SP= 0.00E+00 SK= 0.00E+00
     1560 T=  4013. E= -.27205993E+05 F= -.30865339E+05 EK= 0.36593E+04 SP= 0.00E+00 SK= 0.00E+00
     1570 T=  3977. E= -.27205850E+05 F= -.30832577E+05 EK= 0.36267E+04 SP= 0.00E+00 SK= 0.00E+00
     1580 T=  3992. E= -.27205853E+05 F= -.30846588E+05 EK= 0.36407E+04 SP= 0.00E+00 SK= 0.00E+00
     1590 T=  4062. E= -.27206011E+05 F= -.30910512E+05 EK= 0.37045E+04 SP= 0.00E+00 SK= 0.00E+00
     1600 T=  3992. E= -.27205851E+05 F= -.30846164E+05 EK= 0.36403E+04 SP= 0.00E+00 SK= 0.00E+00
     1610 T=  4001. E= -.27205969E+05 F= -.30854461E+05 EK= 0.36485E+04 SP= 0.00E+00 SK= 0.00E+00
     1620 T=  4021. E= -.27206009E+05 F= -.30873334E+05 EK= 0.36673E+04 SP= 0.00E+00 SK= 0.00E+00
     1630 T=  4001. E= -.27205980E+05 F= -.30854970E+05 EK= 0.36490E+04 SP= 0.00E+00 SK= 0.00E+00
     1640 T=  4010. E= -.27206056E+05 F= -.30863090E+05 EK= 0.36570E+04 SP= 0.00E+00 SK= 0.00E+00
     1650 T=  3997. E= -.27205956E+05 F= -.30851154E+05 EK= 0.36452E+04 SP= 0.00E+00 SK= 0.00E+00
     1660 T=  3990. E= -.27205962E+05 F= -.30844762E+05 EK= 0.36388E+04 SP= 0.00E+00 SK= 0.00E+00
     1670 T=  3998. E= -.27205933E+05 F= -.30852180E+05 EK= 0.36462E+04 SP= 0.00E+00 SK= 0.00E+00
     1680 T=  3996. E= -.27205942E+05 F= -.30850394E+05 EK= 0.36445E+04 SP= 0.00E+00 SK= 0.00E+00
     1690 T=  3978. E= -.27205964E+05 F= -.30833602E+05 EK= 0.36276E+04 SP= 0.00E+00 SK= 0.00E+00
     1700 T=  3992. E= -.27205968E+05 F= -.30846235E+05 EK= 0.36403E+04 SP= 0.00E+00 SK= 0.00E+00
     1710 T=  4013. E= -.27206084E+05 F= -.30865706E+05 EK= 0.36596E+04 SP= 0.00E+00 SK= 0.00E+00
     1720 T=  3936. E= -.27205840E+05 F= -.30795215E+05 EK= 0.35894E+04 SP= 0.00E+00 SK= 0.00E+00
     1730 T=  4014. E= -.27206047E+05 F= -.30866717E+05 EK= 0.36607E+04 SP= 0.00E+00 SK= 0.00E+00
     1740 T=  4022. E= -.27205951E+05 F= -.30873542E+05 EK= 0.36676E+04 SP= 0.00E+00 SK= 0.00E+00
     1750 T=  4027. E= -.27206011E+05 F= -.30878729E+05 EK= 0.36727E+04 SP= 0.00E+00 SK= 0.00E+00
     1760 T=  4065. E= -.27206135E+05 F= -.30912753E+05 EK= 0.37066E+04 SP= 0.00E+00 SK= 0.00E+00
     1770 T=  4020. E= -.27206021E+05 F= -.30872038E+05 EK= 0.36660E+04 SP= 0.00E+00 SK= 0.00E+00
     1780 T=  4021. E= -.27206057E+05 F= -.30872857E+05 EK= 0.36668E+04 SP= 0.00E+00 SK= 0.00E+00
     1790 T=  3985. E= -.27206105E+05 F= -.30840305E+05 EK= 0.36342E+04 SP= 0.00E+00 SK= 0.00E+00
     1800 T=  3930. E= -.27205959E+05 F= -.30789974E+05 EK= 0.35840E+04 SP= 0.00E+00 SK= 0.00E+00
     1810 T=  3992. E= -.27206142E+05 F= -.30846893E+05 EK= 0.36408E+04 SP= 0.00E+00 SK= 0.00E+00
     1820 T=  4010. E= -.27206081E+05 F= -.30863099E+05 EK= 0.36570E+04 SP= 0.00E+00 SK= 0.00E+00
     1830 T=  3992. E= -.27206049E+05 F= -.30846095E+05 EK= 0.36400E+04 SP= 0.00E+00 SK= 0.00E+00
     1840 T=  3973. E= -.27206070E+05 F= -.30829388E+05 EK= 0.36233E+04 SP= 0.00E+00 SK= 0.00E+00
     1850 T=  3983. E= -.27206030E+05 F= -.30837869E+05 EK= 0.36318E+04 SP= 0.00E+00 SK= 0.00E+00
     1860 T=  4006. E= -.27206056E+05 F= -.30859024E+05 EK= 0.36530E+04 SP= 0.00E+00 SK= 0.00E+00
     1870 T=  3952. E= -.27206105E+05 F= -.30810484E+05 EK= 0.36044E+04 SP= 0.00E+00 SK= 0.00E+00
     1880 T=  3903. E= -.27205972E+05 F= -.30765563E+05 EK= 0.35596E+04 SP= 0.00E+00 SK= 0.00E+00
     1890 T=  3957. E= -.27206170E+05 F= -.30814874E+05 EK= 0.36087E+04 SP= 0.00E+00 SK= 0.00E+00
     1900 T=  3961. E= -.27206037E+05 F= -.30818394E+05 EK= 0.36124E+04 SP= 0.00E+00 SK= 0.00E+00
     1910 T=  4010. E= -.27206219E+05 F= -.30863517E+05 EK= 0.36573E+04 SP= 0.00E+00 SK= 0.00E+00
     1920 T=  3932. E= -.27205992E+05 F= -.30791368E+05 EK= 0.35854E+04 SP= 0.00E+00 SK= 0.00E+00
     1930 T=  3950. E= -.27206049E+05 F= -.30807919E+05 EK= 0.36019E+04 SP= 0.00E+00 SK= 0.00E+00
     1940 T=  3972. E= -.27206161E+05 F= -.30828561E+05 EK= 0.36224E+04 SP= 0.00E+00 SK= 0.00E+00
     1950 T=  3919. E= -.27206023E+05 F= -.30779833E+05 EK= 0.35738E+04 SP= 0.00E+00 SK= 0.00E+00
     1960 T=  3960. E= -.27206083E+05 F= -.30817357E+05 EK= 0.36113E+04 SP= 0.00E+00 SK= 0.00E+00
     1970 T=  4002. E= -.27206134E+05 F= -.30855298E+05 EK= 0.36492E+04 SP= 0.00E+00 SK= 0.00E+00
     1980 T=  3946. E= -.27205964E+05 F= -.30804898E+05 EK= 0.35989E+04 SP= 0.00E+00 SK= 0.00E+00
     1990 T=  3953. E= -.27206019E+05 F= -.30811194E+05 EK= 0.36052E+04 SP= 0.00E+00 SK= 0.00E+00
     2000 T=  3944. E= -.27206036E+05 F= -.30802325E+05 EK= 0.35963E+04 SP= 0.00E+00 SK= 0.00E+00
     2010 T=  3934. E= -.27206033E+05 F= -.30793558E+05 EK= 0.35875E+04 SP= 0.00E+00 SK= 0.00E+00
     2020 T=  3979. E= -.27206074E+05 F= -.30834353E+05 EK= 0.36283E+04 SP= 0.00E+00 SK= 0.00E+00
     2030 T=  3974. E= -.27206093E+05 F= -.30829783E+05 EK= 0.36237E+04 SP= 0.00E+00 SK= 0.00E+00
     2040 T=  3923. E= -.27206053E+05 F= -.30783956E+05 EK= 0.35779E+04 SP= 0.00E+00 SK= 0.00E+00
     2050 T=  3936. E= -.27206114E+05 F= -.30795808E+05 EK= 0.35897E+04 SP= 0.00E+00 SK= 0.00E+00
     2060 T=  3933. E= -.27206129E+05 F= -.30792468E+05 EK= 0.35863E+04 SP= 0.00E+00 SK= 0.00E+00
     2070 T=  3925. E= -.27206101E+05 F= -.30785382E+05 EK= 0.35793E+04 SP= 0.00E+00 SK= 0.00E+00
     2080 T=  3958. E= -.27206153E+05 F= -.30815682E+05 EK= 0.36095E+04 SP= 0.00E+00 SK= 0.00E+00
     2090 T=  3947. E= -.27206150E+05 F= -.30805345E+05 EK= 0.35992E+04 SP= 0.00E+00 SK= 0.00E+00
     2100 T=  3945. E= -.27206154E+05 F= -.30804023E+05 EK= 0.35979E+04 SP= 0.00E+00 SK= 0.00E+00
     2110 T=  3966. E= -.27206182E+05 F= -.30823217E+05 EK= 0.36170E+04 SP= 0.00E+00 SK= 0.00E+00
     2120 T=  3948. E= -.27206207E+05 F= -.30806086E+05 EK= 0.35999E+04 SP= 0.00E+00 SK= 0.00E+00
     2130 T=  3927. E= -.27206146E+05 F= -.30787667E+05 EK= 0.35815E+04 SP= 0.00E+00 SK= 0.00E+00
     2140 T=  3931. E= -.27206178E+05 F= -.30790913E+05 EK= 0.35847E+04 SP= 0.00E+00 SK= 0.00E+00
     2150 T=  3909. E= -.27206148E+05 F= -.30770752E+05 EK= 0.35646E+04 SP= 0.00E+00 SK= 0.00E+00
     2160 T=  3932. E= -.27206146E+05 F= -.30791873E+05 EK= 0.35857E+04 SP= 0.00E+00 SK= 0.00E+00
     2170 T=  3997. E= -.27206242E+05 F= -.30851008E+05 EK= 0.36448E+04 SP= 0.00E+00 SK= 0.00E+00
     2180 T=  3958. E= -.27206196E+05 F= -.30815350E+05 EK= 0.36092E+04 SP= 0.00E+00 SK= 0.00E+00
     2190 T=  3907. E= -.27206130E+05 F= -.30768635E+05 EK= 0.35625E+04 SP= 0.00E+00 SK= 0.00E+00
     2200 T=  3985. E= -.27206326E+05 F= -.30840780E+05 EK= 0.36345E+04 SP= 0.00E+00 SK= 0.00E+00
     2210 T=  3955. E= -.27206137E+05 F= -.30812640E+05 EK= 0.36065E+04 SP= 0.00E+00 SK= 0.00E+00
     2220 T=  3943. E= -.27206256E+05 F= -.30801619E+05 EK= 0.35954E+04 SP= 0.00E+00 SK= 0.00E+00
     2230 T=  3925. E= -.27206128E+05 F= -.30785323E+05 EK= 0.35792E+04 SP= 0.00E+00 SK= 0.00E+00
     2240 T=  3944. E= -.27206205E+05 F= -.30802654E+05 EK= 0.35964E+04 SP= 0.00E+00 SK= 0.00E+00
     2250 T=  3935. E= -.27206181E+05 F= -.30794971E+05 EK= 0.35888E+04 SP= 0.00E+00 SK= 0.00E+00
     2260 T=  3945. E= -.27206270E+05 F= -.30804277E+05 EK= 0.35980E+04 SP= 0.00E+00 SK= 0.00E+00
     2270 T=  3916. E= -.27206145E+05 F= -.30776938E+05 EK= 0.35708E+04 SP= 0.00E+00 SK= 0.00E+00
     2280 T=  3936. E= -.27206232E+05 F= -.30795765E+05 EK= 0.35895E+04 SP= 0.00E+00 SK= 0.00E+00
     2290 T=  3952. E= -.27206274E+05 F= -.30810653E+05 EK= 0.36044E+04 SP= 0.00E+00 SK= 0.00E+00
     2300 T=  3935. E= -.27206212E+05 F= -.30794608E+05 EK= 0.35884E+04 SP= 0.00E+00 SK= 0.00E+00
     2310 T=  3934. E= -.27206174E+05 F= -.30793632E+05 EK= 0.35875E+04 SP= 0.00E+00 SK= 0.00E+00
     2320 T=  3970. E= -.27206346E+05 F= -.30826761E+05 EK= 0.36204E+04 SP= 0.00E+00 SK= 0.00E+00
     2330 T=  3892. E= -.27206221E+05 F= -.30755486E+05 EK= 0.35493E+04 SP= 0.00E+00 SK= 0.00E+00
     2340 T=  3880. E= -.27206219E+05 F= -.30744199E+05 EK= 0.35380E+04 SP= 0.00E+00 SK= 0.00E+00
     2350 T=  3912. E= -.27206318E+05 F= -.30773722E+05 EK= 0.35674E+04 SP= 0.00E+00 SK= 0.00E+00
     2360 T=  3897. E= -.27206263E+05 F= -.30760168E+05 EK= 0.35539E+04 SP= 0.00E+00 SK= 0.00E+00
     2370 T=  3918. E= -.27206250E+05 F= -.30779182E+05 EK= 0.35729E+04 SP= 0.00E+00 SK= 0.00E+00
     2380 T=  3935. E= -.27206301E+05 F= -.30795038E+05 EK= 0.35887E+04 SP= 0.00E+00 SK= 0.00E+00
     2390 T=  3883. E= -.27206130E+05 F= -.30746918E+05 EK= 0.35408E+04 SP= 0.00E+00 SK= 0.00E+00
     2400 T=  3927. E= -.27206253E+05 F= -.30787617E+05 EK= 0.35814E+04 SP= 0.00E+00 SK= 0.00E+00
     2410 T=  3906. E= -.27206274E+05 F= -.30768366E+05 EK= 0.35621E+04 SP= 0.00E+00 SK= 0.00E+00
     2420 T=  3862. E= -.27206202E+05 F= -.30728239E+05 EK= 0.35220E+04 SP= 0.00E+00 SK= 0.00E+00
     2430 T=  3937. E= -.27206408E+05 F= -.30796407E+05 EK= 0.35900E+04 SP= 0.00E+00 SK= 0.00E+00
     2440 T=  3926. E= -.27206234E+05 F= -.30786614E+05 EK= 0.35804E+04 SP= 0.00E+00 SK= 0.00E+00
     2450 T=  3903. E= -.27206174E+05 F= -.30765754E+05 EK= 0.35596E+04 SP= 0.00E+00 SK= 0.00E+00
     2460 T=  3915. E= -.27206218E+05 F= -.30776837E+05 EK= 0.35706E+04 SP= 0.00E+00 SK= 0.00E+00
     2470 T=  3893. E= -.27206189E+05 F= -.30756508E+05 EK= 0.35503E+04 SP= 0.00E+00 SK= 0.00E+00
     2480 T=  3883. E= -.27206175E+05 F= -.30747133E+05 EK= 0.35410E+04 SP= 0.00E+00 SK= 0.00E+00
     2490 T=  3889. E= -.27206304E+05 F= -.30752680E+05 EK= 0.35464E+04 SP= 0.00E+00 SK= 0.00E+00
     2500 T=  3854. E= -.27206117E+05 F= -.30720873E+05 EK= 0.35148E+04 SP= 0.00E+00 SK= 0.00E+00
     2510 T=  3964. E= -.27206359E+05 F= -.30820876E+05 EK= 0.36145E+04 SP= 0.00E+00 SK= 0.00E+00
     2520 T=  3929. E= -.27206248E+05 F= -.30789270E+05 EK= 0.35830E+04 SP= 0.00E+00 SK= 0.00E+00
     2530 T=  3879. E= -.27206203E+05 F= -.30743511E+05 EK= 0.35373E+04 SP= 0.00E+00 SK= 0.00E+00
     2540 T=  3912. E= -.27206291E+05 F= -.30773451E+05 EK= 0.35672E+04 SP= 0.00E+00 SK= 0.00E+00
     2550 T=  3914. E= -.27206240E+05 F= -.30775436E+05 EK= 0.35692E+04 SP= 0.00E+00 SK= 0.00E+00
     2560 T=  3880. E= -.27206190E+05 F= -.30744697E+05 EK= 0.35385E+04 SP= 0.00E+00 SK= 0.00E+00
     2570 T=  3893. E= -.27206340E+05 F= -.30756244E+05 EK= 0.35499E+04 SP= 0.00E+00 SK= 0.00E+00
     2580 T=  3909. E= -.27206255E+05 F= -.30770638E+05 EK= 0.35644E+04 SP= 0.00E+00 SK= 0.00E+00
     2590 T=  3959. E= -.27206454E+05 F= -.30816890E+05 EK= 0.36104E+04 SP= 0.00E+00 SK= 0.00E+00
     2600 T=  3880. E= -.27206136E+05 F= -.30744239E+05 EK= 0.35381E+04 SP= 0.00E+00 SK= 0.00E+00
     2610 T=  3918. E= -.27206382E+05 F= -.30779603E+05 EK= 0.35732E+04 SP= 0.00E+00 SK= 0.00E+00
     2620 T=  3906. E= -.27206256E+05 F= -.30768689E+05 EK= 0.35624E+04 SP= 0.00E+00 SK= 0.00E+00
     2630 T=  3896. E= -.27206229E+05 F= -.30758675E+05 EK= 0.35524E+04 SP= 0.00E+00 SK= 0.00E+00
     2640 T=  3890. E= -.27206309E+05 F= -.30753740E+05 EK= 0.35474E+04 SP= 0.00E+00 SK= 0.00E+00
     2650 T=  3848. E= -.27206156E+05 F= -.30715253E+05 EK= 0.35091E+04 SP= 0.00E+00 SK= 0.00E+00
     2660 T=  3916. E= -.27206265E+05 F= -.30777697E+05 EK= 0.35714E+04 SP= 0.00E+00 SK= 0.00E+00
     2670 T=  3932. E= -.27206251E+05 F= -.30791687E+05 EK= 0.35854E+04 SP= 0.00E+00 SK= 0.00E+00
     2680 T=  3896. E= -.27206115E+05 F= -.30759371E+05 EK= 0.35533E+04 SP= 0.00E+00 SK= 0.00E+00
     2690 T=  3946. E= -.27206288E+05 F= -.30805185E+05 EK= 0.35989E+04 SP= 0.00E+00 SK= 0.00E+00
     2700 T=  3924. E= -.27206214E+05 F= -.30784820E+05 EK= 0.35786E+04 SP= 0.00E+00 SK= 0.00E+00
     2710 T=  3913. E= -.27206280E+05 F= -.30775086E+05 EK= 0.35688E+04 SP= 0.00E+00 SK= 0.00E+00
     2720 T=  3890. E= -.27206216E+05 F= -.30753685E+05 EK= 0.35475E+04 SP= 0.00E+00 SK= 0.00E+00
     2730 T=  3935. E= -.27206325E+05 F= -.30794937E+05 EK= 0.35886E+04 SP= 0.00E+00 SK= 0.00E+00
     2740 T=  3903. E= -.27206262E+05 F= -.30765455E+05 EK= 0.35592E+04 SP= 0.00E+00 SK= 0.00E+00
     2750 T=  3863. E= -.27206159E+05 F= -.30728685E+05 EK= 0.35225E+04 SP= 0.00E+00 SK= 0.00E+00
     2760 T=  3876. E= -.27206201E+05 F= -.30740939E+05 EK= 0.35347E+04 SP= 0.00E+00 SK= 0.00E+00
     2770 T=  3887. E= -.27206195E+05 F= -.30750461E+05 EK= 0.35443E+04 SP= 0.00E+00 SK= 0.00E+00
     2780 T=  3911. E= -.27206288E+05 F= -.30772497E+05 EK= 0.35662E+04 SP= 0.00E+00 SK= 0.00E+00
     2790 T=  3858. E= -.27206097E+05 F= -.30724639E+05 EK= 0.35185E+04 SP= 0.00E+00 SK= 0.00E+00
     2800 T=  3907. E= -.27206284E+05 F= -.30768908E+05 EK= 0.35626E+04 SP= 0.00E+00 SK= 0.00E+00
     2810 T=  3910. E= -.27206223E+05 F= -.30772031E+05 EK= 0.35658E+04 SP= 0.00E+00 SK= 0.00E+00
     2820 T=  3874. E= -.27206142E+05 F= -.30739027E+05 EK= 0.35329E+04 SP= 0.00E+00 SK= 0.00E+00
     2830 T=  3885. E= -.27206186E+05 F= -.30749291E+05 EK= 0.35431E+04 SP= 0.00E+00 SK= 0.00E+00
     2840 T=  3887. E= -.27206214E+05 F= -.30750927E+05 EK= 0.35447E+04 SP= 0.00E+00 SK= 0.00E+00
     2850 T=  3824. E= -.27206019E+05 F= -.30693524E+05 EK= 0.34875E+04 SP= 0.00E+00 SK= 0.00E+00
     2860 T=  3878. E= -.27206142E+05 F= -.30742844E+05 EK= 0.35367E+04 SP= 0.00E+00 SK= 0.00E+00
     2870 T=  3876. E= -.27206085E+05 F= -.30740528E+05 EK= 0.35344E+04 SP= 0.00E+00 SK= 0.00E+00
     2880 T=  3854. E= -.27206071E+05 F= -.30720905E+05 EK= 0.35148E+04 SP= 0.00E+00 SK= 0.00E+00
     2890 T=  3857. E= -.27206022E+05 F= -.30723101E+05 EK= 0.35171E+04 SP= 0.00E+00 SK= 0.00E+00
     2900 T=  3876. E= -.27205965E+05 F= -.30740694E+05 EK= 0.35347E+04 SP= 0.00E+00 SK= 0.00E+00
     2910 T=  3914. E= -.27206019E+05 F= -.30775294E+05 EK= 0.35693E+04 SP= 0.00E+00 SK= 0.00E+00
     2920 T=  3893. E= -.27205996E+05 F= -.30756126E+05 EK= 0.35501E+04 SP= 0.00E+00 SK= 0.00E+00
     2930 T=  3872. E= -.27206025E+05 F= -.30737179E+05 EK= 0.35312E+04 SP= 0.00E+00 SK= 0.00E+00
     2940 T=  3864. E= -.27206055E+05 F= -.30730145E+05 EK= 0.35241E+04 SP= 0.00E+00 SK= 0.00E+00
     2950 T=  3857. E= -.27205995E+05 F= -.30723388E+05 EK= 0.35174E+04 SP= 0.00E+00 SK= 0.00E+00
     2960 T=  3900. E= -.27206120E+05 F= -.30762326E+05 EK= 0.35562E+04 SP= 0.00E+00 SK= 0.00E+00
     2970 T=  3871. E= -.27206040E+05 F= -.30736446E+05 EK= 0.35304E+04 SP= 0.00E+00 SK= 0.00E+00
     2980 T=  3866. E= -.27205941E+05 F= -.30731813E+05 EK= 0.35259E+04 SP= 0.00E+00 SK= 0.00E+00
     2990 T=  3915. E= -.27206090E+05 F= -.30776698E+05 EK= 0.35706E+04 SP= 0.00E+00 SK= 0.00E+00
     3000 T=  3865. E= -.27205958E+05 F= -.30730338E+05 EK= 0.35244E+04 SP= 0.00E+00 SK= 0.00E+00
     3010 T=  3861. E= -.27205996E+05 F= -.30726905E+05 EK= 0.35209E+04 SP= 0.00E+00 SK= 0.00E+00
     3020 T=  3869. E= -.27205982E+05 F= -.30733902E+05 EK= 0.35279E+04 SP= 0.00E+00 SK= 0.00E+00
     3030 T=  3884. E= -.27206011E+05 F= -.30747984E+05 EK= 0.35420E+04 SP= 0.00E+00 SK= 0.00E+00
     3040 T=  3896. E= -.27205943E+05 F= -.30759245E+05 EK= 0.35533E+04 SP= 0.00E+00 SK= 0.00E+00
     3050 T=  3877. E= -.27205971E+05 F= -.30741963E+05 EK= 0.35360E+04 SP= 0.00E+00 SK= 0.00E+00
     3060 T=  3848. E= -.27205963E+05 F= -.30714986E+05 EK= 0.35090E+04 SP= 0.00E+00 SK= 0.00E+00
     3070 T=  3867. E= -.27206044E+05 F= -.30732292E+05 EK= 0.35262E+04 SP= 0.00E+00 SK= 0.00E+00
     3080 T=  3849. E= -.27206025E+05 F= -.30716464E+05 EK= 0.35104E+04 SP= 0.00E+00 SK= 0.00E+00
     3090 T=  3826. E= -.27205957E+05 F= -.30695472E+05 EK= 0.34895E+04 SP= 0.00E+00 SK= 0.00E+00
     3100 T=  3839. E= -.27205981E+05 F= -.30706585E+05 EK= 0.35006E+04 SP= 0.00E+00 SK= 0.00E+00
     3110 T=  3826. E= -.27205991E+05 F= -.30695207E+05 EK= 0.34892E+04 SP= 0.00E+00 SK= 0.00E+00
     3120 T=  3856. E= -.27205980E+05 F= -.30722194E+05 EK= 0.35162E+04 SP= 0.00E+00 SK= 0.00E+00
     3130 T=  3883. E= -.27206026E+05 F= -.30747191E+05 EK= 0.35412E+04 SP= 0.00E+00 SK= 0.00E+00
     3140 T=  3868. E= -.27205997E+05 F= -.30732939E+05 EK= 0.35269E+04 SP= 0.00E+00 SK= 0.00E+00
     3150 T=  3845. E= -.27205929E+05 F= -.30711950E+05 EK= 0.35060E+04 SP= 0.00E+00 SK= 0.00E+00
     3160 T=  3872. E= -.27206127E+05 F= -.30737152E+05 EK= 0.35310E+04 SP= 0.00E+00 SK= 0.00E+00
     3170 T=  3829. E= -.27206034E+05 F= -.30698082E+05 EK= 0.34920E+04 SP= 0.00E+00 SK= 0.00E+00
     3180 T=  3796. E= -.27205993E+05 F= -.30668064E+05 EK= 0.34621E+04 SP= 0.00E+00 SK= 0.00E+00
     3190 T=  3846. E= -.27206165E+05 F= -.30713150E+05 EK= 0.35070E+04 SP= 0.00E+00 SK= 0.00E+00
     3200 T=  3840. E= -.27205998E+05 F= -.30708182E+05 EK= 0.35022E+04 SP= 0.00E+00 SK= 0.00E+00
     3210 T=  3873. E= -.27206112E+05 F= -.30738121E+05 EK= 0.35320E+04 SP= 0.00E+00 SK= 0.00E+00
     3220 T=  3864. E= -.27206066E+05 F= -.30729765E+05 EK= 0.35237E+04 SP= 0.00E+00 SK= 0.00E+00
     3230 T=  3863. E= -.27206074E+05 F= -.30728676E+05 EK= 0.35226E+04 SP= 0.00E+00 SK= 0.00E+00
     3240 T=  3849. E= -.27206055E+05 F= -.30716127E+05 EK= 0.35101E+04 SP= 0.00E+00 SK= 0.00E+00
     3250 T=  3882. E= -.27206153E+05 F= -.30746073E+05 EK= 0.35399E+04 SP= 0.00E+00 SK= 0.00E+00
     3260 T=  3865. E= -.27206110E+05 F= -.30730340E+05 EK= 0.35242E+04 SP= 0.00E+00 SK= 0.00E+00
     3270 T=  3838. E= -.27206039E+05 F= -.30706264E+05 EK= 0.35002E+04 SP= 0.00E+00 SK= 0.00E+00
     3280 T=  3850. E= -.27206098E+05 F= -.30716902E+05 EK= 0.35108E+04 SP= 0.00E+00 SK= 0.00E+00
     3290 T=  3809. E= -.27206046E+05 F= -.30679803E+05 EK= 0.34738E+04 SP= 0.00E+00 SK= 0.00E+00
     3300 T=  3819. E= -.27206147E+05 F= -.30688641E+05 EK= 0.34825E+04 SP= 0.00E+00 SK= 0.00E+00
     3310 T=  3806. E= -.27206075E+05 F= -.30676696E+05 EK= 0.34706E+04 SP= 0.00E+00 SK= 0.00E+00
     3320 T=  3815. E= -.27206085E+05 F= -.30684755E+05 EK= 0.34787E+04 SP= 0.00E+00 SK= 0.00E+00
     3330 T=  3812. E= -.27206151E+05 F= -.30682669E+05 EK= 0.34765E+04 SP= 0.00E+00 SK= 0.00E+00
     3340 T=  3813. E= -.27206077E+05 F= -.30683506E+05 EK= 0.34774E+04 SP= 0.00E+00 SK= 0.00E+00
     3350 T=  3837. E= -.27206159E+05 F= -.30705230E+05 EK= 0.34991E+04 SP= 0.00E+00 SK= 0.00E+00
     3360 T=  3819. E= -.27206067E+05 F= -.30689098E+05 EK= 0.34830E+04 SP= 0.00E+00 SK= 0.00E+00
     3370 T=  3862. E= -.27206176E+05 F= -.30727660E+05 EK= 0.35215E+04 SP= 0.00E+00 SK= 0.00E+00
     3380 T=  3836. E= -.27206075E+05 F= -.30704499E+05 EK= 0.34984E+04 SP= 0.00E+00 SK= 0.00E+00
     3390 T=  3851. E= -.27206213E+05 F= -.30717954E+05 EK= 0.35117E+04 SP= 0.00E+00 SK= 0.00E+00
     3400 T=  3792. E= -.27205975E+05 F= -.30664403E+05 EK= 0.34584E+04 SP= 0.00E+00 SK= 0.00E+00
     3410 T=  3824. E= -.27206038E+05 F= -.30693185E+05 EK= 0.34871E+04 SP= 0.00E+00 SK= 0.00E+00
     3420 T=  3849. E= -.27206012E+05 F= -.30716101E+05 EK= 0.35101E+04 SP= 0.00E+00 SK= 0.00E+00
     3430 T=  3834. E= -.27206002E+05 F= -.30702608E+05 EK= 0.34966E+04 SP= 0.00E+00 SK= 0.00E+00
     3440 T=  3834. E= -.27206075E+05 F= -.30702441E+05 EK= 0.34964E+04 SP= 0.00E+00 SK= 0.00E+00
     3450 T=  3798. E= -.27206089E+05 F= -.30669288E+05 EK= 0.34632E+04 SP= 0.00E+00 SK= 0.00E+00
     3460 T=  3787. E= -.27206020E+05 F= -.30659681E+05 EK= 0.34537E+04 SP= 0.00E+00 SK= 0.00E+00
     3470 T=  3859. E= -.27206280E+05 F= -.30725315E+05 EK= 0.35190E+04 SP= 0.00E+00 SK= 0.00E+00
     3480 T=  3816. E= -.27206090E+05 F= -.30685883E+05 EK= 0.34798E+04 SP= 0.00E+00 SK= 0.00E+00
     3490 T=  3811. E= -.27206109E+05 F= -.30681332E+05 EK= 0.34752E+04 SP= 0.00E+00 SK= 0.00E+00
     3500 T=  3811. E= -.27206144E+05 F= -.30681078E+05 EK= 0.34749E+04 SP= 0.00E+00 SK= 0.00E+00
     3510 T=  3793. E= -.27206025E+05 F= -.30665285E+05 EK= 0.34593E+04 SP= 0.00E+00 SK= 0.00E+00
     3520 T=  3831. E= -.27206144E+05 F= -.30700165E+05 EK= 0.34940E+04 SP= 0.00E+00 SK= 0.00E+00
     3530 T=  3830. E= -.27206153E+05 F= -.30698947E+05 EK= 0.34928E+04 SP= 0.00E+00 SK= 0.00E+00
     3540 T=  3830. E= -.27206115E+05 F= -.30698672E+05 EK= 0.34926E+04 SP= 0.00E+00 SK= 0.00E+00
     3550 T=  3838. E= -.27206146E+05 F= -.30706209E+05 EK= 0.35001E+04 SP= 0.00E+00 SK= 0.00E+00
     3560 T=  3832. E= -.27206108E+05 F= -.30700980E+05 EK= 0.34949E+04 SP= 0.00E+00 SK= 0.00E+00
     3570 T=  3848. E= -.27206164E+05 F= -.30715432E+05 EK= 0.35093E+04 SP= 0.00E+00 SK= 0.00E+00
     3580 T=  3815. E= -.27206105E+05 F= -.30685247E+05 EK= 0.34791E+04 SP= 0.00E+00 SK= 0.00E+00
     3590 T=  3822. E= -.27206185E+05 F= -.30691713E+05 EK= 0.34855E+04 SP= 0.00E+00 SK= 0.00E+00
     3600 T=  3796. E= -.27206008E+05 F= -.30667973E+05 EK= 0.34620E+04 SP= 0.00E+00 SK= 0.00E+00
     3610 T=  3844. E= -.27206136E+05 F= -.30711817E+05 EK= 0.35057E+04 SP= 0.00E+00 SK= 0.00E+00
     3620 T=  3826. E= -.27206109E+05 F= -.30695245E+05 EK= 0.34891E+04 SP= 0.00E+00 SK= 0.00E+00
     3630 T=  3810. E= -.27206151E+05 F= -.30680401E+05 EK= 0.34742E+04 SP= 0.00E+00 SK= 0.00E+00
     3640 T=  3785. E= -.27206085E+05 F= -.30658055E+05 EK= 0.34520E+04 SP= 0.00E+00 SK= 0.00E+00
     3650 T=  3792. E= -.27206128E+05 F= -.30664024E+05 EK= 0.34579E+04 SP= 0.00E+00 SK= 0.00E+00
     3660 T=  3811. E= -.27206117E+05 F= -.30681567E+05 EK= 0.34754E+04 SP= 0.00E+00 SK= 0.00E+00
     3670 T=  3794. E= -.27206125E+05 F= -.30666397E+05 EK= 0.34603E+04 SP= 0.00E+00 SK= 0.00E+00
     3680 T=  3792. E= -.27206128E+05 F= -.30663820E+05 EK= 0.34577E+04 SP= 0.00E+00 SK= 0.00E+00
     3690 T=  3801. E= -.27206071E+05 F= -.30672143E+05 EK= 0.34661E+04 SP= 0.00E+00 SK= 0.00E+00
     3700 T=  3818. E= -.27206133E+05 F= -.30687968E+05 EK= 0.34818E+04 SP= 0.00E+00 SK= 0.00E+00
     3710 T=  3796. E= -.27206097E+05 F= -.30667723E+05 EK= 0.34616E+04 SP= 0.00E+00 SK= 0.00E+00
     3720 T=  3794. E= -.27206160E+05 F= -.30666494E+05 EK= 0.34603E+04 SP= 0.00E+00 SK= 0.00E+00
     3730 T=  3754. E= -.27206087E+05 F= -.30629579E+05 EK= 0.34235E+04 SP= 0.00E+00 SK= 0.00E+00
     3740 T=  3767. E= -.27206103E+05 F= -.30641122E+05 EK= 0.34350E+04 SP= 0.00E+00 SK= 0.00E+00
     3750 T=  3788. E= -.27206155E+05 F= -.30660700E+05 EK= 0.34545E+04 SP= 0.00E+00 SK= 0.00E+00
     3760 T=  3775. E= -.27206113E+05 F= -.30648971E+05 EK= 0.34429E+04 SP= 0.00E+00 SK= 0.00E+00
     3770 T=  3787. E= -.27206185E+05 F= -.30659800E+05 EK= 0.34536E+04 SP= 0.00E+00 SK= 0.00E+00
     3780 T=  3780. E= -.27206125E+05 F= -.30653301E+05 EK= 0.34472E+04 SP= 0.00E+00 SK= 0.00E+00
     3790 T=  3819. E= -.27206063E+05 F= -.30688931E+05 EK= 0.34829E+04 SP= 0.00E+00 SK= 0.00E+00
     3800 T=  3859. E= -.27206123E+05 F= -.30725009E+05 EK= 0.35189E+04 SP= 0.00E+00 SK= 0.00E+00
     3810 T=  3822. E= -.27206140E+05 F= -.30691459E+05 EK= 0.34853E+04 SP= 0.00E+00 SK= 0.00E+00
     3820 T=  3795. E= -.27206091E+05 F= -.30666508E+05 EK= 0.34604E+04 SP= 0.00E+00 SK= 0.00E+00
     3830 T=  3837. E= -.27206194E+05 F= -.30705050E+05 EK= 0.34989E+04 SP= 0.00E+00 SK= 0.00E+00
     3840 T=  3810. E= -.27206122E+05 F= -.30680204E+05 EK= 0.34741E+04 SP= 0.00E+00 SK= 0.00E+00
     3850 T=  3762. E= -.27206098E+05 F= -.30636981E+05 EK= 0.34309E+04 SP= 0.00E+00 SK= 0.00E+00
     3860 T=  3807. E= -.27206187E+05 F= -.30678287E+05 EK= 0.34721E+04 SP= 0.00E+00 SK= 0.00E+00
     3870 T=  3812. E= -.27206189E+05 F= -.30682904E+05 EK= 0.34767E+04 SP= 0.00E+00 SK= 0.00E+00
     3880 T=  3792. E= -.27206204E+05 F= -.30664224E+05 EK= 0.34580E+04 SP= 0.00E+00 SK= 0.00E+00
     3890 T=  3786. E= -.27206207E+05 F= -.30658465E+05 EK= 0.34523E+04 SP= 0.00E+00 SK= 0.00E+00
     3900 T=  3783. E= -.27206132E+05 F= -.30656133E+05 EK= 0.34500E+04 SP= 0.00E+00 SK= 0.00E+00
     3910 T=  3798. E= -.27206202E+05 F= -.30669826E+05 EK= 0.34636E+04 SP= 0.00E+00 SK= 0.00E+00
     3920 T=  3760. E= -.27205988E+05 F= -.30635267E+05 EK= 0.34293E+04 SP= 0.00E+00 SK= 0.00E+00
     3930 T=  3828. E= -.27206175E+05 F= -.30697375E+05 EK= 0.34912E+04 SP= 0.00E+00 SK= 0.00E+00
     3940 T=  3768. E= -.27205914E+05 F= -.30641882E+05 EK= 0.34360E+04 SP= 0.00E+00 SK= 0.00E+00
     3950 T=  3788. E= -.27206043E+05 F= -.30660515E+05 EK= 0.34545E+04 SP= 0.00E+00 SK= 0.00E+00
     3960 T=  3806. E= -.27205953E+05 F= -.30677017E+05 EK= 0.34711E+04 SP= 0.00E+00 SK= 0.00E+00
     3970 T=  3822. E= -.27206029E+05 F= -.30691824E+05 EK= 0.34858E+04 SP= 0.00E+00 SK= 0.00E+00
     3980 T=  3788. E= -.27205875E+05 F= -.30659916E+05 EK= 0.34540E+04 SP= 0.00E+00 SK= 0.00E+00
     3990 T=  3825. E= -.27206075E+05 F= -.30694121E+05 EK= 0.34880E+04 SP= 0.00E+00 SK= 0.00E+00
     4000 T=  3796. E= -.27205933E+05 F= -.30667297E+05 EK= 0.34614E+04 SP= 0.00E+00 SK= 0.00E+00
     4010 T=  3795. E= -.27206008E+05 F= -.30666875E+05 EK= 0.34609E+04 SP= 0.00E+00 SK= 0.00E+00
     4020 T=  3750. E= -.27205874E+05 F= -.30625635E+05 EK= 0.34198E+04 SP= 0.00E+00 SK= 0.00E+00
     4030 T=  3816. E= -.27205972E+05 F= -.30685663E+05 EK= 0.34797E+04 SP= 0.00E+00 SK= 0.00E+00
     4040 T=  3802. E= -.27205883E+05 F= -.30673010E+05 EK= 0.34671E+04 SP= 0.00E+00 SK= 0.00E+00
     4050 T=  3753. E= -.27205809E+05 F= -.30628724E+05 EK= 0.34229E+04 SP= 0.00E+00 SK= 0.00E+00
     4060 T=  3793. E= -.27205854E+05 F= -.30664976E+05 EK= 0.34591E+04 SP= 0.00E+00 SK= 0.00E+00
     4070 T=  3787. E= -.27205868E+05 F= -.30659320E+05 EK= 0.34535E+04 SP= 0.00E+00 SK= 0.00E+00
     4080 T=  3754. E= -.27205724E+05 F= -.30629250E+05 EK= 0.34235E+04 SP= 0.00E+00 SK= 0.00E+00
     4090 T=  3836. E= -.27206034E+05 F= -.30704308E+05 EK= 0.34983E+04 SP= 0.00E+00 SK= 0.00E+00
     4100 T=  3794. E= -.27205914E+05 F= -.30665380E+05 EK= 0.34595E+04 SP= 0.00E+00 SK= 0.00E+00
     4110 T=  3774. E= -.27205962E+05 F= -.30647379E+05 EK= 0.34414E+04 SP= 0.00E+00 SK= 0.00E+00
     4120 T=  3775. E= -.27205996E+05 F= -.30648652E+05 EK= 0.34427E+04 SP= 0.00E+00 SK= 0.00E+00
     4130 T=  3748. E= -.27205976E+05 F= -.30623555E+05 EK= 0.34176E+04 SP= 0.00E+00 SK= 0.00E+00
     4140 T=  3748. E= -.27205981E+05 F= -.30623987E+05 EK= 0.34180E+04 SP= 0.00E+00 SK= 0.00E+00
     4150 T=  3779. E= -.27206033E+05 F= -.30652436E+05 EK= 0.34464E+04 SP= 0.00E+00 SK= 0.00E+00
     4160 T=  3775. E= -.27205963E+05 F= -.30648193E+05 EK= 0.34422E+04 SP= 0.00E+00 SK= 0.00E+00
     4170 T=  3752. E= -.27205986E+05 F= -.30627525E+05 EK= 0.34215E+04 SP= 0.00E+00 SK= 0.00E+00
     4180 T=  3744. E= -.27205975E+05 F= -.30620057E+05 EK= 0.34141E+04 SP= 0.00E+00 SK= 0.00E+00
     4190 T=  3766. E= -.27206088E+05 F= -.30640565E+05 EK= 0.34345E+04 SP= 0.00E+00 SK= 0.00E+00
     4200 T=  3749. E= -.27205929E+05 F= -.30624664E+05 EK= 0.34187E+04 SP= 0.00E+00 SK= 0.00E+00
     4210 T=  3809. E= -.27206100E+05 F= -.30679583E+05 EK= 0.34735E+04 SP= 0.00E+00 SK= 0.00E+00
     4220 T=  3775. E= -.27206025E+05 F= -.30648709E+05 EK= 0.34427E+04 SP= 0.00E+00 SK= 0.00E+00
     4230 T=  3738. E= -.27206004E+05 F= -.30615196E+05 EK= 0.34092E+04 SP= 0.00E+00 SK= 0.00E+00
     4240 T=  3788. E= -.27206079E+05 F= -.30660267E+05 EK= 0.34542E+04 SP= 0.00E+00 SK= 0.00E+00
     4250 T=  3819. E= -.27206124E+05 F= -.30688552E+05 EK= 0.34824E+04 SP= 0.00E+00 SK= 0.00E+00
     4260 T=  3755. E= -.27205922E+05 F= -.30630534E+05 EK= 0.34246E+04 SP= 0.00E+00 SK= 0.00E+00
     4270 T=  3803. E= -.27206038E+05 F= -.30673791E+05 EK= 0.34678E+04 SP= 0.00E+00 SK= 0.00E+00
     4280 T=  3800. E= -.27206064E+05 F= -.30671786E+05 EK= 0.34657E+04 SP= 0.00E+00 SK= 0.00E+00
     4290 T=  3742. E= -.27205994E+05 F= -.30618671E+05 EK= 0.34127E+04 SP= 0.00E+00 SK= 0.00E+00
     4300 T=  3758. E= -.27205995E+05 F= -.30632925E+05 EK= 0.34269E+04 SP= 0.00E+00 SK= 0.00E+00
     4310 T=  3813. E= -.27206045E+05 F= -.30683402E+05 EK= 0.34774E+04 SP= 0.00E+00 SK= 0.00E+00
     4320 T=  3791. E= -.27206028E+05 F= -.30662936E+05 EK= 0.34569E+04 SP= 0.00E+00 SK= 0.00E+00
     4330 T=  3734. E= -.27205947E+05 F= -.30611073E+05 EK= 0.34051E+04 SP= 0.00E+00 SK= 0.00E+00
     4340 T=  3738. E= -.27205947E+05 F= -.30615048E+05 EK= 0.34091E+04 SP= 0.00E+00 SK= 0.00E+00
     4350 T=  3745. E= -.27205985E+05 F= -.30621461E+05 EK= 0.34155E+04 SP= 0.00E+00 SK= 0.00E+00
     4360 T=  3715. E= -.27205911E+05 F= -.30593770E+05 EK= 0.33879E+04 SP= 0.00E+00 SK= 0.00E+00
     4370 T=  3756. E= -.27206021E+05 F= -.30630875E+05 EK= 0.34249E+04 SP= 0.00E+00 SK= 0.00E+00
     4380 T=  3779. E= -.27206006E+05 F= -.30651974E+05 EK= 0.34460E+04 SP= 0.00E+00 SK= 0.00E+00
     4390 T=  3761. E= -.27206028E+05 F= -.30635687E+05 EK= 0.34297E+04 SP= 0.00E+00 SK= 0.00E+00
     4400 T=  3767. E= -.27206001E+05 F= -.30641310E+05 EK= 0.34353E+04 SP= 0.00E+00 SK= 0.00E+00
     4410 T=  3817. E= -.27206146E+05 F= -.30686896E+05 EK= 0.34808E+04 SP= 0.00E+00 SK= 0.00E+00
     4420 T=  3743. E= -.27205938E+05 F= -.30619535E+05 EK= 0.34136E+04 SP= 0.00E+00 SK= 0.00E+00
     4430 T=  3703. E= -.27205932E+05 F= -.30583132E+05 EK= 0.33772E+04 SP= 0.00E+00 SK= 0.00E+00
     4440 T=  3773. E= -.27206097E+05 F= -.30647261E+05 EK= 0.34412E+04 SP= 0.00E+00 SK= 0.00E+00
     4450 T=  3740. E= -.27205969E+05 F= -.30616841E+05 EK= 0.34109E+04 SP= 0.00E+00 SK= 0.00E+00
     4460 T=  3711. E= -.27205955E+05 F= -.30590514E+05 EK= 0.33846E+04 SP= 0.00E+00 SK= 0.00E+00
     4470 T=  3744. E= -.27206067E+05 F= -.30620370E+05 EK= 0.34143E+04 SP= 0.00E+00 SK= 0.00E+00
     4480 T=  3733. E= -.27205944E+05 F= -.30610266E+05 EK= 0.34043E+04 SP= 0.00E+00 SK= 0.00E+00
     4490 T=  3801. E= -.27206072E+05 F= -.30672506E+05 EK= 0.34664E+04 SP= 0.00E+00 SK= 0.00E+00
     4500 T=  3755. E= -.27205853E+05 F= -.30630405E+05 EK= 0.34246E+04 SP= 0.00E+00 SK= 0.00E+00
     4510 T=  3769. E= -.27205973E+05 F= -.30643352E+05 EK= 0.34374E+04 SP= 0.00E+00 SK= 0.00E+00
     4520 T=  3722. E= -.27205871E+05 F= -.30600238E+05 EK= 0.33944E+04 SP= 0.00E+00 SK= 0.00E+00
     4530 T=  3717. E= -.27205832E+05 F= -.30595326E+05 EK= 0.33895E+04 SP= 0.00E+00 SK= 0.00E+00
     4540 T=  3735. E= -.27205803E+05 F= -.30611911E+05 EK= 0.34061E+04 SP= 0.00E+00 SK= 0.00E+00
     4550 T=  3737. E= -.27205797E+05 F= -.30613746E+05 EK= 0.34079E+04 SP= 0.00E+00 SK= 0.00E+00
     4560 T=  3747. E= -.27205821E+05 F= -.30622666E+05 EK= 0.34168E+04 SP= 0.00E+00 SK= 0.00E+00
     4570 T=  3715. E= -.27205741E+05 F= -.30593893E+05 EK= 0.33882E+04 SP= 0.00E+00 SK= 0.00E+00
     4580 T=  3737. E= -.27205881E+05 F= -.30613731E+05 EK= 0.34079E+04 SP= 0.00E+00 SK= 0.00E+00
     4590 T=  3741. E= -.27205870E+05 F= -.30617316E+05 EK= 0.34114E+04 SP= 0.00E+00 SK= 0.00E+00
     4600 T=  3740. E= -.27205889E+05 F= -.30616904E+05 EK= 0.34110E+04 SP= 0.00E+00 SK= 0.00E+00
     4610 T=  3721. E= -.27205829E+05 F= -.30599178E+05 EK= 0.33933E+04 SP= 0.00E+00 SK= 0.00E+00
     4620 T=  3731. E= -.27205885E+05 F= -.30608151E+05 EK= 0.34023E+04 SP= 0.00E+00 SK= 0.00E+00
     4630 T=  3711. E= -.27205767E+05 F= -.30589750E+05 EK= 0.33840E+04 SP= 0.00E+00 SK= 0.00E+00
     4640 T=  3755. E= -.27205816E+05 F= -.30629884E+05 EK= 0.34241E+04 SP= 0.00E+00 SK= 0.00E+00
     4650 T=  3818. E= -.27205857E+05 F= -.30687832E+05 EK= 0.34820E+04 SP= 0.00E+00 SK= 0.00E+00
     4660 T=  3798. E= -.27205883E+05 F= -.30669412E+05 EK= 0.34635E+04 SP= 0.00E+00 SK= 0.00E+00
     4670 T=  3741. E= -.27205856E+05 F= -.30617785E+05 EK= 0.34119E+04 SP= 0.00E+00 SK= 0.00E+00
     4680 T=  3744. E= -.27205915E+05 F= -.30619760E+05 EK= 0.34138E+04 SP= 0.00E+00 SK= 0.00E+00
     4690 T=  3741. E= -.27205775E+05 F= -.30617295E+05 EK= 0.34115E+04 SP= 0.00E+00 SK= 0.00E+00
     4700 T=  3789. E= -.27205916E+05 F= -.30661469E+05 EK= 0.34556E+04 SP= 0.00E+00 SK= 0.00E+00
     4710 T=  3786. E= -.27205909E+05 F= -.30658368E+05 EK= 0.34525E+04 SP= 0.00E+00 SK= 0.00E+00
     4720 T=  3776. E= -.27205827E+05 F= -.30648963E+05 EK= 0.34431E+04 SP= 0.00E+00 SK= 0.00E+00
     4730 T=  3778. E= -.27205885E+05 F= -.30651250E+05 EK= 0.34454E+04 SP= 0.00E+00 SK= 0.00E+00
     4740 T=  3734. E= -.27205742E+05 F= -.30611050E+05 EK= 0.34053E+04 SP= 0.00E+00 SK= 0.00E+00
     4750 T=  3757. E= -.27205843E+05 F= -.30632430E+05 EK= 0.34266E+04 SP= 0.00E+00 SK= 0.00E+00
     4760 T=  3728. E= -.27205738E+05 F= -.30605323E+05 EK= 0.33996E+04 SP= 0.00E+00 SK= 0.00E+00
     4770 T=  3732. E= -.27205869E+05 F= -.30609297E+05 EK= 0.34034E+04 SP= 0.00E+00 SK= 0.00E+00
     4780 T=  3707. E= -.27205715E+05 F= -.30586301E+05 EK= 0.33806E+04 SP= 0.00E+00 SK= 0.00E+00
     4790 T=  3725. E= -.27205796E+05 F= -.30602878E+05 EK= 0.33971E+04 SP= 0.00E+00 SK= 0.00E+00
     4800 T=  3719. E= -.27205807E+05 F= -.30597237E+05 EK= 0.33914E+04 SP= 0.00E+00 SK= 0.00E+00
     4810 T=  3690. E= -.27205675E+05 F= -.30570923E+05 EK= 0.33652E+04 SP= 0.00E+00 SK= 0.00E+00
     4820 T=  3712. E= -.27205734E+05 F= -.30590673E+05 EK= 0.33849E+04 SP= 0.00E+00 SK= 0.00E+00
     4830 T=  3691. E= -.27205700E+05 F= -.30571276E+05 EK= 0.33656E+04 SP= 0.00E+00 SK= 0.00E+00
     4840 T=  3720. E= -.27205763E+05 F= -.30597761E+05 EK= 0.33920E+04 SP= 0.00E+00 SK= 0.00E+00
     4850 T=  3720. E= -.27205691E+05 F= -.30597732E+05 EK= 0.33920E+04 SP= 0.00E+00 SK= 0.00E+00
     4860 T=  3700. E= -.27205688E+05 F= -.30579804E+05 EK= 0.33741E+04 SP= 0.00E+00 SK= 0.00E+00
     4870 T=  3685. E= -.27205689E+05 F= -.30566164E+05 EK= 0.33605E+04 SP= 0.00E+00 SK= 0.00E+00
     4880 T=  3658. E= -.27205568E+05 F= -.30541179E+05 EK= 0.33356E+04 SP= 0.00E+00 SK= 0.00E+00
     4890 T=  3704. E= -.27205635E+05 F= -.30583650E+05 EK= 0.33780E+04 SP= 0.00E+00 SK= 0.00E+00
     4900 T=  3754. E= -.27205752E+05 F= -.30628985E+05 EK= 0.34232E+04 SP= 0.00E+00 SK= 0.00E+00
     4910 T=  3741. E= -.27205658E+05 F= -.30617313E+05 EK= 0.34117E+04 SP= 0.00E+00 SK= 0.00E+00
     4920 T=  3749. E= -.27205751E+05 F= -.30624891E+05 EK= 0.34191E+04 SP= 0.00E+00 SK= 0.00E+00
     4930 T=  3712. E= -.27205637E+05 F= -.30591030E+05 EK= 0.33854E+04 SP= 0.00E+00 SK= 0.00E+00
     4940 T=  3726. E= -.27205703E+05 F= -.30603617E+05 EK= 0.33979E+04 SP= 0.00E+00 SK= 0.00E+00
     4950 T=  3771. E= -.27205701E+05 F= -.30644786E+05 EK= 0.34391E+04 SP= 0.00E+00 SK= 0.00E+00
     4960 T=  3730. E= -.27205706E+05 F= -.30607197E+05 EK= 0.34015E+04 SP= 0.00E+00 SK= 0.00E+00
     4970 T=  3682. E= -.27205563E+05 F= -.30563667E+05 EK= 0.33581E+04 SP= 0.00E+00 SK= 0.00E+00
     4980 T=  3744. E= -.27205874E+05 F= -.30620086E+05 EK= 0.34142E+04 SP= 0.00E+00 SK= 0.00E+00
     4990 T=  3690. E= -.27205620E+05 F= -.30570854E+05 EK= 0.33652E+04 SP= 0.00E+00 SK= 0.00E+00
At line 1940 of file md.f90
Fortran runtime error: Unit number is negative and unit was not already opened with OPEN(NEWUNIT=...)

Error termination. Backtrace:
At line 1940 of file md.f90
Fortran runtime error: Unit number is negative and unit was not already opened with OPEN(NEWUNIT=...)

Error termination. Backtrace:
At line 1940 of file md.f90
Fortran runtime error: Unit number is negative and unit was not already opened with OPEN(NEWUNIT=...)

Error termination. Backtrace:
At line 1940 of file md.f90
Fortran runtime error: Unit number is negative and unit was not already opened with OPEN(NEWUNIT=...)

Error termination. Backtrace:
At line 1940 of file md.f90
Fortran runtime error: Unit number is negative and unit was not already opened with OPEN(NEWUNIT=...)

Error termination. Backtrace:
     5000 T=  3714. E= -.27205770E+05 F= -.30592522E+05 EK= 0.33868E+04 SP= 0.00E+00 SK= 0.00E+00
Rc and Rl:   5.500000  7.321000

Average number of steps between two list updates:  19.38
Average number of atoms in the shell:     0.01
#0  0x7fe17c81ad11 in ???
#1  0x7fe17c81b859 in ???
#2  0x7fe17c81c53f in ???
#3  0x55af9a36f0bc in ???
#4  0x55af9a36a92e in ???
#5  0x7fe17c4b1082 in __libc_start_main
	at ../csu/libc-start.c:308
#6  0x55af9a36a96d in ???
#7  0xffffffffffffffff in ???
#0  0x7f7dbef4ad11 in ???
#1  0x7f7dbef4b859 in ???
#2  0x7f7dbef4c53f in ???
#3  0x55e53b52f0bc in ???
#4  0x55e53b52a92e in ???
#5  0x7f7dbebe1082 in __libc_start_main
	at ../csu/libc-start.c:308
#6  0x55e53b52a96d in ???
#7  0xffffffffffffffff in ???
#0  0x7f70f4b5ed11 in ???
#1  0x7f70f4b5f859 in ???
#2  0x7f70f4b6053f in ???
#3  0x55dd189040bc in ???
#4  0x55dd188ff92e in ???
#5  0x7f70f47f5082 in __libc_start_main
	at ../csu/libc-start.c:308
#6  0x55dd188ff96d in ???
#7  0xffffffffffffffff in ???
#0  0x7f20fc722d11 in ???
#1  0x7f20fc723859 in ???
#2  0x7f20fc72453f in ???
#3  0x561828a300bc in ???
#4  0x561828a2b92e in ???
#5  0x7f20fc3b9082 in __libc_start_main
	at ../csu/libc-start.c:308
#6  0x561828a2b96d in ???
#7  0xffffffffffffffff in ???
