 running on    6 nodes
 distr:  one band on    1 nodes,    6 groups
 md.x 0.99
 POSCAR found :  1 types and     7056 ions
Rc and Rl:   5.500000  7.321000
 TIPO = eam     
 TIPO1 = uknown p
 Using EAM

 EAM parameters: 
 C  =   9.9634  EPS  = 0.2048  A  = 3.5678  M  = 3.127  N  =  6.366  R1 =   5.500000


 ----------------------------------------------------------------------------- 
|                                                                             |
|           W    W    AA    RRRRR   N    N  II  N    N   GGGG   !!!           |
|           W    W   A  A   R    R  NN   N  II  NN   N  G    G  !!!           |
|           W    W  A    A  R    R  N N  N  II  N N  N  G       !!!           |
|           W WW W  AAAAAA  RRRRR   N  N N  II  N  N N  G  GGG   !            |
|           WW  WW  A    A  R   R   N   NN  II  N   NN  G    G                |
|           W    W  A    A  R    R  N    N  II  N    N   GGGG   !!!           |
|                                                                             |
|      VASP found  21165 degrees of freedom                                   |
|      the temperature will equal 2*E(kin)/ (degrees of freedom)              |
|      this differs from previous releases, where T was 2*E(kin)/(3 NIONS).   |
|      The new definition is more consistent                                  |
|                                                                             |
 ----------------------------------------------------------------------------- 

 Random init:       13451       21022
 Random init:       13451       21022
 Random init:       13451       21022
 Random init:       13451       21022
 Random init:       13451       21022
 Random init:       13451       21022
 alloco spazio per displ
       10 T=  4251. E= -.27583671E+05 F= -.31460338E+05 EK= 0.38767E+04 SP= 0.00E+00 SK= 0.00E+00
       20 T=  4082. E= -.27583202E+05 F= -.31305533E+05 EK= 0.37223E+04 SP= 0.00E+00 SK= 0.00E+00
       30 T=  4073. E= -.27583412E+05 F= -.31297805E+05 EK= 0.37144E+04 SP= 0.00E+00 SK= 0.00E+00
       40 T=  4086. E= -.27583405E+05 F= -.31309825E+05 EK= 0.37264E+04 SP= 0.00E+00 SK= 0.00E+00
       50 T=  4073. E= -.27583443E+05 F= -.31297437E+05 EK= 0.37140E+04 SP= 0.00E+00 SK= 0.00E+00
       60 T=  4091. E= -.27583496E+05 F= -.31313771E+05 EK= 0.37303E+04 SP= 0.00E+00 SK= 0.00E+00
       70 T=  4108. E= -.27583605E+05 F= -.31330027E+05 EK= 0.37464E+04 SP= 0.00E+00 SK= 0.00E+00
       80 T=  4068. E= -.27583448E+05 F= -.31293261E+05 EK= 0.37098E+04 SP= 0.00E+00 SK= 0.00E+00
       90 T=  4117. E= -.27583656E+05 F= -.31337788E+05 EK= 0.37541E+04 SP= 0.00E+00 SK= 0.00E+00
      100 T=  4133. E= -.27583580E+05 F= -.31352688E+05 EK= 0.37691E+04 SP= 0.00E+00 SK= 0.00E+00
      110 T=  4167. E= -.27583662E+05 F= -.31383931E+05 EK= 0.38003E+04 SP= 0.00E+00 SK= 0.00E+00
      120 T=  4145. E= -.27583648E+05 F= -.31363296E+05 EK= 0.37796E+04 SP= 0.00E+00 SK= 0.00E+00
      130 T=  4127. E= -.27583741E+05 F= -.31347259E+05 EK= 0.37635E+04 SP= 0.00E+00 SK= 0.00E+00
      140 T=  4110. E= -.27583705E+05 F= -.31331995E+05 EK= 0.37483E+04 SP= 0.00E+00 SK= 0.00E+00
      150 T=  4090. E= -.27583644E+05 F= -.31313475E+05 EK= 0.37298E+04 SP= 0.00E+00 SK= 0.00E+00
      160 T=  4112. E= -.27583747E+05 F= -.31333809E+05 EK= 0.37501E+04 SP= 0.00E+00 SK= 0.00E+00
      170 T=  4110. E= -.27583609E+05 F= -.31331533E+05 EK= 0.37479E+04 SP= 0.00E+00 SK= 0.00E+00
      180 T=  4112. E= -.27583731E+05 F= -.31333709E+05 EK= 0.37500E+04 SP= 0.00E+00 SK= 0.00E+00
      190 T=  4083. E= -.27583627E+05 F= -.31306841E+05 EK= 0.37232E+04 SP= 0.00E+00 SK= 0.00E+00
      200 T=  4129. E= -.27583746E+05 F= -.31348680E+05 EK= 0.37649E+04 SP= 0.00E+00 SK= 0.00E+00
      210 T=  4066. E= -.27583615E+05 F= -.31291357E+05 EK= 0.37077E+04 SP= 0.00E+00 SK= 0.00E+00
      220 T=  4087. E= -.27583750E+05 F= -.31310787E+05 EK= 0.37270E+04 SP= 0.00E+00 SK= 0.00E+00
      230 T=  4117. E= -.27583750E+05 F= -.31338181E+05 EK= 0.37544E+04 SP= 0.00E+00 SK= 0.00E+00
      240 T=  4124. E= -.27583698E+05 F= -.31344897E+05 EK= 0.37612E+04 SP= 0.00E+00 SK= 0.00E+00
      250 T=  4136. E= -.27583746E+05 F= -.31355410E+05 EK= 0.37717E+04 SP= 0.00E+00 SK= 0.00E+00
      260 T=  4101. E= -.27583690E+05 F= -.31323282E+05 EK= 0.37396E+04 SP= 0.00E+00 SK= 0.00E+00
      270 T=  4137. E= -.27583739E+05 F= -.31356235E+05 EK= 0.37725E+04 SP= 0.00E+00 SK= 0.00E+00
      280 T=  4169. E= -.27583808E+05 F= -.31385787E+05 EK= 0.38020E+04 SP= 0.00E+00 SK= 0.00E+00
      290 T=  4122. E= -.27583689E+05 F= -.31342971E+05 EK= 0.37593E+04 SP= 0.00E+00 SK= 0.00E+00
      300 T=  4089. E= -.27583647E+05 F= -.31312613E+05 EK= 0.37290E+04 SP= 0.00E+00 SK= 0.00E+00
      310 T=  4066. E= -.27583698E+05 F= -.31291865E+05 EK= 0.37082E+04 SP= 0.00E+00 SK= 0.00E+00
      320 T=  4062. E= -.27583575E+05 F= -.31288030E+05 EK= 0.37045E+04 SP= 0.00E+00 SK= 0.00E+00
      330 T=  4165. E= -.27583768E+05 F= -.31382098E+05 EK= 0.37983E+04 SP= 0.00E+00 SK= 0.00E+00
      340 T=  4155. E= -.27583655E+05 F= -.31372483E+05 EK= 0.37888E+04 SP= 0.00E+00 SK= 0.00E+00
      350 T=  4111. E= -.27583704E+05 F= -.31332502E+05 EK= 0.37488E+04 SP= 0.00E+00 SK= 0.00E+00
      360 T=  4093. E= -.27583737E+05 F= -.31315987E+05 EK= 0.37323E+04 SP= 0.00E+00 SK= 0.00E+00
      370 T=  4120. E= -.27583774E+05 F= -.31341005E+05 EK= 0.37572E+04 SP= 0.00E+00 SK= 0.00E+00
      380 T=  4116. E= -.27583790E+05 F= -.31337067E+05 EK= 0.37533E+04 SP= 0.00E+00 SK= 0.00E+00
      390 T=  4124. E= -.27583770E+05 F= -.31344747E+05 EK= 0.37610E+04 SP= 0.00E+00 SK= 0.00E+00
      400 T=  4130. E= -.27583770E+05 F= -.31349882E+05 EK= 0.37661E+04 SP= 0.00E+00 SK= 0.00E+00
      410 T=  4106. E= -.27583681E+05 F= -.31327916E+05 EK= 0.37442E+04 SP= 0.00E+00 SK= 0.00E+00
      420 T=  4104. E= -.27583669E+05 F= -.31325924E+05 EK= 0.37423E+04 SP= 0.00E+00 SK= 0.00E+00
      430 T=  4085. E= -.27583613E+05 F= -.31309276E+05 EK= 0.37257E+04 SP= 0.00E+00 SK= 0.00E+00
      440 T=  4095. E= -.27583648E+05 F= -.31317611E+05 EK= 0.37340E+04 SP= 0.00E+00 SK= 0.00E+00
      450 T=  4075. E= -.27583658E+05 F= -.31299791E+05 EK= 0.37161E+04 SP= 0.00E+00 SK= 0.00E+00
      460 T=  4048. E= -.27583589E+05 F= -.31274927E+05 EK= 0.36913E+04 SP= 0.00E+00 SK= 0.00E+00
      470 T=  4120. E= -.27583766E+05 F= -.31341167E+05 EK= 0.37574E+04 SP= 0.00E+00 SK= 0.00E+00
      480 T=  4171. E= -.27583765E+05 F= -.31387886E+05 EK= 0.38041E+04 SP= 0.00E+00 SK= 0.00E+00
      490 T=  4143. E= -.27583752E+05 F= -.31362062E+05 EK= 0.37783E+04 SP= 0.00E+00 SK= 0.00E+00
      500 T=  4100. E= -.27583711E+05 F= -.31322954E+05 EK= 0.37392E+04 SP= 0.00E+00 SK= 0.00E+00
      510 T=  4117. E= -.27583842E+05 F= -.31337875E+05 EK= 0.37540E+04 SP= 0.00E+00 SK= 0.00E+00
      520 T=  4057. E= -.27583571E+05 F= -.31282916E+05 EK= 0.36993E+04 SP= 0.00E+00 SK= 0.00E+00
      530 T=  4111. E= -.27583781E+05 F= -.31332782E+05 EK= 0.37490E+04 SP= 0.00E+00 SK= 0.00E+00
      540 T=  4087. E= -.27583701E+05 F= -.31310776E+05 EK= 0.37271E+04 SP= 0.00E+00 SK= 0.00E+00
      550 T=  4055. E= -.27583679E+05 F= -.31281815E+05 EK= 0.36981E+04 SP= 0.00E+00 SK= 0.00E+00
      560 T=  4131. E= -.27583733E+05 F= -.31351385E+05 EK= 0.37677E+04 SP= 0.00E+00 SK= 0.00E+00
      570 T=  4140. E= -.27583772E+05 F= -.31359596E+05 EK= 0.37758E+04 SP= 0.00E+00 SK= 0.00E+00
      580 T=  4073. E= -.27583610E+05 F= -.31298169E+05 EK= 0.37146E+04 SP= 0.00E+00 SK= 0.00E+00
      590 T=  4094. E= -.27583666E+05 F= -.31317555E+05 EK= 0.37339E+04 SP= 0.00E+00 SK= 0.00E+00
      600 T=  4113. E= -.27583535E+05 F= -.31334169E+05 EK= 0.37506E+04 SP= 0.00E+00 SK= 0.00E+00
      610 T=  4164. E= -.27583702E+05 F= -.31380973E+05 EK= 0.37973E+04 SP= 0.00E+00 SK= 0.00E+00
      620 T=  4072. E= -.27583514E+05 F= -.31297071E+05 EK= 0.37136E+04 SP= 0.00E+00 SK= 0.00E+00
      630 T=  4055. E= -.27583479E+05 F= -.31281661E+05 EK= 0.36982E+04 SP= 0.00E+00 SK= 0.00E+00
      640 T=  4105. E= -.27583547E+05 F= -.31326833E+05 EK= 0.37433E+04 SP= 0.00E+00 SK= 0.00E+00
      650 T=  4083. E= -.27583469E+05 F= -.31306790E+05 EK= 0.37233E+04 SP= 0.00E+00 SK= 0.00E+00
      660 T=  4098. E= -.27583542E+05 F= -.31320377E+05 EK= 0.37368E+04 SP= 0.00E+00 SK= 0.00E+00
      670 T=  4118. E= -.27583515E+05 F= -.31338830E+05 EK= 0.37553E+04 SP= 0.00E+00 SK= 0.00E+00
      680 T=  4134. E= -.27583658E+05 F= -.31353449E+05 EK= 0.37698E+04 SP= 0.00E+00 SK= 0.00E+00
      690 T=  4078. E= -.27583445E+05 F= -.31302341E+05 EK= 0.37189E+04 SP= 0.00E+00 SK= 0.00E+00
      700 T=  4151. E= -.27583628E+05 F= -.31368920E+05 EK= 0.37853E+04 SP= 0.00E+00 SK= 0.00E+00
      710 T=  4108. E= -.27583353E+05 F= -.31330036E+05 EK= 0.37467E+04 SP= 0.00E+00 SK= 0.00E+00
      720 T=  4108. E= -.27583505E+05 F= -.31329566E+05 EK= 0.37461E+04 SP= 0.00E+00 SK= 0.00E+00
      730 T=  4088. E= -.27583428E+05 F= -.31311275E+05 EK= 0.37278E+04 SP= 0.00E+00 SK= 0.00E+00
      740 T=  4088. E= -.27583399E+05 F= -.31311054E+05 EK= 0.37277E+04 SP= 0.00E+00 SK= 0.00E+00
      750 T=  4110. E= -.27583422E+05 F= -.31331539E+05 EK= 0.37481E+04 SP= 0.00E+00 SK= 0.00E+00
      760 T=  4131. E= -.27583366E+05 F= -.31350878E+05 EK= 0.37675E+04 SP= 0.00E+00 SK= 0.00E+00
      770 T=  4163. E= -.27583491E+05 F= -.31379635E+05 EK= 0.37961E+04 SP= 0.00E+00 SK= 0.00E+00
      780 T=  4137. E= -.27583427E+05 F= -.31356530E+05 EK= 0.37731E+04 SP= 0.00E+00 SK= 0.00E+00
      790 T=  4099. E= -.27583402E+05 F= -.31321532E+05 EK= 0.37381E+04 SP= 0.00E+00 SK= 0.00E+00
      800 T=  4074. E= -.27583387E+05 F= -.31298820E+05 EK= 0.37154E+04 SP= 0.00E+00 SK= 0.00E+00
      810 T=  4092. E= -.27583457E+05 F= -.31314667E+05 EK= 0.37312E+04 SP= 0.00E+00 SK= 0.00E+00
      820 T=  4097. E= -.27583513E+05 F= -.31319988E+05 EK= 0.37365E+04 SP= 0.00E+00 SK= 0.00E+00
      830 T=  4087. E= -.27583477E+05 F= -.31310301E+05 EK= 0.37268E+04 SP= 0.00E+00 SK= 0.00E+00
      840 T=  4076. E= -.27583483E+05 F= -.31300377E+05 EK= 0.37169E+04 SP= 0.00E+00 SK= 0.00E+00
      850 T=  4040. E= -.27583439E+05 F= -.31267549E+05 EK= 0.36841E+04 SP= 0.00E+00 SK= 0.00E+00
      860 T=  4047. E= -.27583382E+05 F= -.31274257E+05 EK= 0.36909E+04 SP= 0.00E+00 SK= 0.00E+00
      870 T=  4138. E= -.27583565E+05 F= -.31357421E+05 EK= 0.37739E+04 SP= 0.00E+00 SK= 0.00E+00
      880 T=  4093. E= -.27583389E+05 F= -.31315782E+05 EK= 0.37324E+04 SP= 0.00E+00 SK= 0.00E+00
      890 T=  4051. E= -.27583460E+05 F= -.31277705E+05 EK= 0.36942E+04 SP= 0.00E+00 SK= 0.00E+00
      900 T=  4082. E= -.27583479E+05 F= -.31306180E+05 EK= 0.37227E+04 SP= 0.00E+00 SK= 0.00E+00
      910 T=  4106. E= -.27583498E+05 F= -.31328117E+05 EK= 0.37446E+04 SP= 0.00E+00 SK= 0.00E+00
      920 T=  4083. E= -.27583343E+05 F= -.31306446E+05 EK= 0.37231E+04 SP= 0.00E+00 SK= 0.00E+00
      930 T=  4120. E= -.27583495E+05 F= -.31340223E+05 EK= 0.37567E+04 SP= 0.00E+00 SK= 0.00E+00
      940 T=  4114. E= -.27583424E+05 F= -.31335418E+05 EK= 0.37520E+04 SP= 0.00E+00 SK= 0.00E+00
      950 T=  4116. E= -.27583450E+05 F= -.31337110E+05 EK= 0.37537E+04 SP= 0.00E+00 SK= 0.00E+00
      960 T=  4054. E= -.27583398E+05 F= -.31280419E+05 EK= 0.36970E+04 SP= 0.00E+00 SK= 0.00E+00
      970 T=  4072. E= -.27583448E+05 F= -.31296444E+05 EK= 0.37130E+04 SP= 0.00E+00 SK= 0.00E+00
      980 T=  4116. E= -.27583529E+05 F= -.31336704E+05 EK= 0.37532E+04 SP= 0.00E+00 SK= 0.00E+00
      990 T=  4081. E= -.27583377E+05 F= -.31304683E+05 EK= 0.37213E+04 SP= 0.00E+00 SK= 0.00E+00
     1000 T=  4112. E= -.27583470E+05 F= -.31333566E+05 EK= 0.37501E+04 SP= 0.00E+00 SK= 0.00E+00
     1010 T=  4106. E= -.27583405E+05 F= -.31327684E+05 EK= 0.37443E+04 SP= 0.00E+00 SK= 0.00E+00
     1020 T=  4103. E= -.27583474E+05 F= -.31324859E+05 EK= 0.37414E+04 SP= 0.00E+00 SK= 0.00E+00
     1030 T=  4100. E= -.27583456E+05 F= -.31322367E+05 EK= 0.37389E+04 SP= 0.00E+00 SK= 0.00E+00
     1040 T=  4093. E= -.27583554E+05 F= -.31315953E+05 EK= 0.37324E+04 SP= 0.00E+00 SK= 0.00E+00
     1050 T=  4062. E= -.27583467E+05 F= -.31287295E+05 EK= 0.37038E+04 SP= 0.00E+00 SK= 0.00E+00
     1060 T=  4085. E= -.27583641E+05 F= -.31308507E+05 EK= 0.37249E+04 SP= 0.00E+00 SK= 0.00E+00
     1070 T=  4078. E= -.27583545E+05 F= -.31302378E+05 EK= 0.37188E+04 SP= 0.00E+00 SK= 0.00E+00
     1080 T=  4068. E= -.27583518E+05 F= -.31293622E+05 EK= 0.37101E+04 SP= 0.00E+00 SK= 0.00E+00
     1090 T=  4081. E= -.27583438E+05 F= -.31304711E+05 EK= 0.37213E+04 SP= 0.00E+00 SK= 0.00E+00
     1100 T=  4106. E= -.27583495E+05 F= -.31328186E+05 EK= 0.37447E+04 SP= 0.00E+00 SK= 0.00E+00
     1110 T=  4078. E= -.27583460E+05 F= -.31302453E+05 EK= 0.37190E+04 SP= 0.00E+00 SK= 0.00E+00
     1120 T=  4087. E= -.27583461E+05 F= -.31310888E+05 EK= 0.37274E+04 SP= 0.00E+00 SK= 0.00E+00
     1130 T=  4129. E= -.27583443E+05 F= -.31348389E+05 EK= 0.37649E+04 SP= 0.00E+00 SK= 0.00E+00
     1140 T=  4119. E= -.27583481E+05 F= -.31339832E+05 EK= 0.37564E+04 SP= 0.00E+00 SK= 0.00E+00
     1150 T=  4112. E= -.27583468E+05 F= -.31333722E+05 EK= 0.37503E+04 SP= 0.00E+00 SK= 0.00E+00
     1160 T=  4121. E= -.27583429E+05 F= -.31341385E+05 EK= 0.37580E+04 SP= 0.00E+00 SK= 0.00E+00
     1170 T=  4113. E= -.27583491E+05 F= -.31334068E+05 EK= 0.37506E+04 SP= 0.00E+00 SK= 0.00E+00
     1180 T=  4110. E= -.27583402E+05 F= -.31331474E+05 EK= 0.37481E+04 SP= 0.00E+00 SK= 0.00E+00
     1190 T=  4105. E= -.27583482E+05 F= -.31327430E+05 EK= 0.37439E+04 SP= 0.00E+00 SK= 0.00E+00
     1200 T=  4104. E= -.27583451E+05 F= -.31325665E+05 EK= 0.37422E+04 SP= 0.00E+00 SK= 0.00E+00
     1210 T=  4115. E= -.27583399E+05 F= -.31336464E+05 EK= 0.37531E+04 SP= 0.00E+00 SK= 0.00E+00
     1220 T=  4178. E= -.27583528E+05 F= -.31393924E+05 EK= 0.38104E+04 SP= 0.00E+00 SK= 0.00E+00
     1230 T=  4144. E= -.27583458E+05 F= -.31362658E+05 EK= 0.37792E+04 SP= 0.00E+00 SK= 0.00E+00
     1240 T=  4092. E= -.27583423E+05 F= -.31315081E+05 EK= 0.37317E+04 SP= 0.00E+00 SK= 0.00E+00
     1250 T=  4107. E= -.27583493E+05 F= -.31329085E+05 EK= 0.37456E+04 SP= 0.00E+00 SK= 0.00E+00
     1260 T=  4105. E= -.27583459E+05 F= -.31326782E+05 EK= 0.37433E+04 SP= 0.00E+00 SK= 0.00E+00
     1270 T=  4115. E= -.27583509E+05 F= -.31336246E+05 EK= 0.37527E+04 SP= 0.00E+00 SK= 0.00E+00
     1280 T=  4118. E= -.27583542E+05 F= -.31338691E+05 EK= 0.37551E+04 SP= 0.00E+00 SK= 0.00E+00
     1290 T=  4073. E= -.27583459E+05 F= -.31297813E+05 EK= 0.37144E+04 SP= 0.00E+00 SK= 0.00E+00
     1300 T=  4070. E= -.27583510E+05 F= -.31295179E+05 EK= 0.37117E+04 SP= 0.00E+00 SK= 0.00E+00
     1310 T=  4098. E= -.27583686E+05 F= -.31320902E+05 EK= 0.37372E+04 SP= 0.00E+00 SK= 0.00E+00
     1320 T=  4065. E= -.27583592E+05 F= -.31290627E+05 EK= 0.37070E+04 SP= 0.00E+00 SK= 0.00E+00
     1330 T=  4095. E= -.27583698E+05 F= -.31317915E+05 EK= 0.37342E+04 SP= 0.00E+00 SK= 0.00E+00
     1340 T=  4095. E= -.27583561E+05 F= -.31318295E+05 EK= 0.37347E+04 SP= 0.00E+00 SK= 0.00E+00
     1350 T=  4107. E= -.27583610E+05 F= -.31328711E+05 EK= 0.37451E+04 SP= 0.00E+00 SK= 0.00E+00
     1360 T=  4111. E= -.27583607E+05 F= -.31332290E+05 EK= 0.37487E+04 SP= 0.00E+00 SK= 0.00E+00
     1370 T=  4110. E= -.27583635E+05 F= -.31331578E+05 EK= 0.37479E+04 SP= 0.00E+00 SK= 0.00E+00
     1380 T=  4107. E= -.27583611E+05 F= -.31328914E+05 EK= 0.37453E+04 SP= 0.00E+00 SK= 0.00E+00
     1390 T=  4084. E= -.27583451E+05 F= -.31307726E+05 EK= 0.37243E+04 SP= 0.00E+00 SK= 0.00E+00
     1400 T=  4118. E= -.27583539E+05 F= -.31338609E+05 EK= 0.37551E+04 SP= 0.00E+00 SK= 0.00E+00
     1410 T=  4100. E= -.27583544E+05 F= -.31322344E+05 EK= 0.37388E+04 SP= 0.00E+00 SK= 0.00E+00
     1420 T=  4095. E= -.27583542E+05 F= -.31317964E+05 EK= 0.37344E+04 SP= 0.00E+00 SK= 0.00E+00
     1430 T=  4122. E= -.27583573E+05 F= -.31342551E+05 EK= 0.37590E+04 SP= 0.00E+00 SK= 0.00E+00
     1440 T=  4142. E= -.27583674E+05 F= -.31361143E+05 EK= 0.37775E+04 SP= 0.00E+00 SK= 0.00E+00
     1450 T=  4077. E= -.27583569E+05 F= -.31301587E+05 EK= 0.37180E+04 SP= 0.00E+00 SK= 0.00E+00
     1460 T=  4074. E= -.27583630E+05 F= -.31298774E+05 EK= 0.37151E+04 SP= 0.00E+00 SK= 0.00E+00
     1470 T=  4091. E= -.27583553E+05 F= -.31314353E+05 EK= 0.37308E+04 SP= 0.00E+00 SK= 0.00E+00
     1480 T=  4134. E= -.27583687E+05 F= -.31353900E+05 EK= 0.37702E+04 SP= 0.00E+00 SK= 0.00E+00
     1490 T=  4081. E= -.27583566E+05 F= -.31305462E+05 EK= 0.37219E+04 SP= 0.00E+00 SK= 0.00E+00
     1500 T=  4047. E= -.27583515E+05 F= -.31274023E+05 EK= 0.36905E+04 SP= 0.00E+00 SK= 0.00E+00
     1510 T=  4124. E= -.27583702E+05 F= -.31344746E+05 EK= 0.37610E+04 SP= 0.00E+00 SK= 0.00E+00
     1520 T=  4136. E= -.27583662E+05 F= -.31355740E+05 EK= 0.37721E+04 SP= 0.00E+00 SK= 0.00E+00
     1530 T=  4132. E= -.27583700E+05 F= -.31351929E+05 EK= 0.37682E+04 SP= 0.00E+00 SK= 0.00E+00
     1540 T=  4097. E= -.27583629E+05 F= -.31320172E+05 EK= 0.37365E+04 SP= 0.00E+00 SK= 0.00E+00
     1550 T=  4090. E= -.27583652E+05 F= -.31313630E+05 EK= 0.37300E+04 SP= 0.00E+00 SK= 0.00E+00
     1560 T=  4088. E= -.27583616E+05 F= -.31311190E+05 EK= 0.37276E+04 SP= 0.00E+00 SK= 0.00E+00
     1570 T=  4129. E= -.27583688E+05 F= -.31348655E+05 EK= 0.37650E+04 SP= 0.00E+00 SK= 0.00E+00
     1580 T=  4100. E= -.27583609E+05 F= -.31322596E+05 EK= 0.37390E+04 SP= 0.00E+00 SK= 0.00E+00
     1590 T=  4053. E= -.27583515E+05 F= -.31279572E+05 EK= 0.36961E+04 SP= 0.00E+00 SK= 0.00E+00
     1600 T=  4088. E= -.27583684E+05 F= -.31311916E+05 EK= 0.37282E+04 SP= 0.00E+00 SK= 0.00E+00
     1610 T=  4091. E= -.27583626E+05 F= -.31314061E+05 EK= 0.37304E+04 SP= 0.00E+00 SK= 0.00E+00
     1620 T=  4127. E= -.27583743E+05 F= -.31347411E+05 EK= 0.37637E+04 SP= 0.00E+00 SK= 0.00E+00
     1630 T=  4107. E= -.27583612E+05 F= -.31328852E+05 EK= 0.37452E+04 SP= 0.00E+00 SK= 0.00E+00
     1640 T=  4130. E= -.27583669E+05 F= -.31349796E+05 EK= 0.37661E+04 SP= 0.00E+00 SK= 0.00E+00
     1650 T=  4087. E= -.27583559E+05 F= -.31310472E+05 EK= 0.37269E+04 SP= 0.00E+00 SK= 0.00E+00
     1660 T=  4086. E= -.27583507E+05 F= -.31309414E+05 EK= 0.37259E+04 SP= 0.00E+00 SK= 0.00E+00
     1670 T=  4138. E= -.27583632E+05 F= -.31356776E+05 EK= 0.37731E+04 SP= 0.00E+00 SK= 0.00E+00
     1680 T=  4111. E= -.27583454E+05 F= -.31332833E+05 EK= 0.37494E+04 SP= 0.00E+00 SK= 0.00E+00
     1690 T=  4136. E= -.27583493E+05 F= -.31355709E+05 EK= 0.37722E+04 SP= 0.00E+00 SK= 0.00E+00
     1700 T=  4102. E= -.27583484E+05 F= -.31324485E+05 EK= 0.37410E+04 SP= 0.00E+00 SK= 0.00E+00
     1710 T=  4072. E= -.27583477E+05 F= -.31297249E+05 EK= 0.37138E+04 SP= 0.00E+00 SK= 0.00E+00
     1720 T=  4073. E= -.27583479E+05 F= -.31297854E+05 EK= 0.37144E+04 SP= 0.00E+00 SK= 0.00E+00
     1730 T=  4061. E= -.27583383E+05 F= -.31287072E+05 EK= 0.37037E+04 SP= 0.00E+00 SK= 0.00E+00
     1740 T=  4125. E= -.27583518E+05 F= -.31345500E+05 EK= 0.37620E+04 SP= 0.00E+00 SK= 0.00E+00
     1750 T=  4084. E= -.27583403E+05 F= -.31308104E+05 EK= 0.37247E+04 SP= 0.00E+00 SK= 0.00E+00
     1760 T=  4078. E= -.27583510E+05 F= -.31302404E+05 EK= 0.37189E+04 SP= 0.00E+00 SK= 0.00E+00
     1770 T=  4073. E= -.27583384E+05 F= -.31297695E+05 EK= 0.37143E+04 SP= 0.00E+00 SK= 0.00E+00
     1780 T=  4060. E= -.27583482E+05 F= -.31286024E+05 EK= 0.37025E+04 SP= 0.00E+00 SK= 0.00E+00
     1790 T=  3998. E= -.27583282E+05 F= -.31228921E+05 EK= 0.36456E+04 SP= 0.00E+00 SK= 0.00E+00
     1800 T=  4080. E= -.27583482E+05 F= -.31304573E+05 EK= 0.37211E+04 SP= 0.00E+00 SK= 0.00E+00
     1810 T=  4119. E= -.27583387E+05 F= -.31339564E+05 EK= 0.37562E+04 SP= 0.00E+00 SK= 0.00E+00
     1820 T=  4116. E= -.27583467E+05 F= -.31336631E+05 EK= 0.37532E+04 SP= 0.00E+00 SK= 0.00E+00
     1830 T=  4096. E= -.27583381E+05 F= -.31318772E+05 EK= 0.37354E+04 SP= 0.00E+00 SK= 0.00E+00
     1840 T=  4086. E= -.27583370E+05 F= -.31309930E+05 EK= 0.37266E+04 SP= 0.00E+00 SK= 0.00E+00
     1850 T=  4102. E= -.27583474E+05 F= -.31323838E+05 EK= 0.37404E+04 SP= 0.00E+00 SK= 0.00E+00
     1860 T=  4116. E= -.27583439E+05 F= -.31336695E+05 EK= 0.37533E+04 SP= 0.00E+00 SK= 0.00E+00
     1870 T=  4121. E= -.27583520E+05 F= -.31341158E+05 EK= 0.37576E+04 SP= 0.00E+00 SK= 0.00E+00
     1880 T=  4083. E= -.27583394E+05 F= -.31307265E+05 EK= 0.37239E+04 SP= 0.00E+00 SK= 0.00E+00
     1890 T=  4094. E= -.27583457E+05 F= -.31316661E+05 EK= 0.37332E+04 SP= 0.00E+00 SK= 0.00E+00
     1900 T=  4082. E= -.27583372E+05 F= -.31306105E+05 EK= 0.37227E+04 SP= 0.00E+00 SK= 0.00E+00
     1910 T=  4127. E= -.27583539E+05 F= -.31347536E+05 EK= 0.37640E+04 SP= 0.00E+00 SK= 0.00E+00
     1920 T=  4091. E= -.27583419E+05 F= -.31313737E+05 EK= 0.37303E+04 SP= 0.00E+00 SK= 0.00E+00
     1930 T=  4081. E= -.27583426E+05 F= -.31304615E+05 EK= 0.37212E+04 SP= 0.00E+00 SK= 0.00E+00
     1940 T=  4076. E= -.27583447E+05 F= -.31300873E+05 EK= 0.37174E+04 SP= 0.00E+00 SK= 0.00E+00
     1950 T=  4122. E= -.27583549E+05 F= -.31342380E+05 EK= 0.37588E+04 SP= 0.00E+00 SK= 0.00E+00
     1960 T=  4099. E= -.27583496E+05 F= -.31321916E+05 EK= 0.37384E+04 SP= 0.00E+00 SK= 0.00E+00
     1970 T=  4087. E= -.27583386E+05 F= -.31310761E+05 EK= 0.37274E+04 SP= 0.00E+00 SK= 0.00E+00
     1980 T=  4122. E= -.27583482E+05 F= -.31342171E+05 EK= 0.37587E+04 SP= 0.00E+00 SK= 0.00E+00
     1990 T=  4092. E= -.27583370E+05 F= -.31315284E+05 EK= 0.37319E+04 SP= 0.00E+00 SK= 0.00E+00
At line 1940 of file md.f90
Fortran runtime error: Unit number is negative and unit was not already opened with OPEN(NEWUNIT=...)

Error termination. Backtrace:
At line 1940 of file md.f90
Fortran runtime error: Unit number is negative and unit was not already opened with OPEN(NEWUNIT=...)

Error termination. Backtrace:
At line 1940 of file md.f90
Fortran runtime error: Unit number is negative and unit was not already opened with OPEN(NEWUNIT=...)

Error termination. Backtrace:
At line 1940 of file md.f90
Fortran runtime error: Unit number is negative and unit was not already opened with OPEN(NEWUNIT=...)

Error termination. Backtrace:
At line 1940 of file md.f90
Fortran runtime error: Unit number is negative and unit was not already opened with OPEN(NEWUNIT=...)

Error termination. Backtrace:
     2000 T=  4099. E= -.27583394E+05 F= -.31321424E+05 EK= 0.37380E+04 SP= 0.00E+00 SK= 0.00E+00
Rc and Rl:   5.500000  7.321000

Average number of steps between two list updates:  18.87
Average number of atoms in the shell:     0.01
#0  0x7f289a725d11 in ???
#1  0x7f289a726859 in ???
#2  0x7f289a72753f in ???
#3  0x55da9eeaa0bc in ???
#4  0x55da9eea592e in ???
#5  0x7f289a3bc082 in __libc_start_main
	at ../csu/libc-start.c:308
#6  0x55da9eea596d in ???
#7  0xffffffffffffffff in ???
#0  0x7f98be20ad11 in ???
#1  0x7f98be20b859 in ???
#2  0x7f98be20c53f in ???
#3  0x55b5395f50bc in ???
#4  0x55b5395f092e in ???
#5  0x7f98bdea1082 in __libc_start_main
	at ../csu/libc-start.c:308
#6  0x55b5395f096d in ???
#7  0xffffffffffffffff in ???
#0  0x7f5142adad11 in ???
#1  0x7f5142adb859 in ???
#2  0x7f5142adc53f in ???
#3  0x55c61794b0bc in ???
#4  0x55c61794692e in ???
#5  0x7f5142771082 in __libc_start_main
	at ../csu/libc-start.c:308
#6  0x55c61794696d in ???
#7  0xffffffffffffffff in ???
#0  0x7f9ff6665d11 in ???
#1  0x7f9ff6666859 in ???
#2  0x7f9ff666753f in ???
#3  0x561666f460bc in ???
#4  0x561666f4192e in ???
#5  0x7f9ff62fc082 in __libc_start_main
	at ../csu/libc-start.c:308
#6  0x561666f4196d in ???
#7  0xffffffffffffffff in ???
#0  0x7f10204c1d11 in ???
#1  0x7f10204c2859 in ???
#2  0x7f10204c353f in ???
#3  0x5555c5ada0bc in ???
#4  0x5555c5ad592e in ???
#5  0x7f1020158082 in __libc_start_main
	at ../csu/libc-start.c:308
#6  0x5555c5ad596d in ???
#7  0xffffffffffffffff in ???
