 running on    6 nodes
 distr:  one band on    1 nodes,    6 groups
 md.x 0.99
 POSCAR found :  1 types and     7056 ions
Rc and Rl:   5.500000  7.321000
 TIPO = eam     
 TIPO1 = uknown p
 Using EAM

 EAM parameters: 
 C  =   9.9634  EPS  = 0.2048  A  = 3.5678  M  = 3.127  N  =  6.366  R1 =   5.500000


 ----------------------------------------------------------------------------- 
|                                                                             |
|           W    W    AA    RRRRR   N    N  II  N    N   GGGG   !!!           |
|           W    W   A  A   R    R  NN   N  II  NN   N  G    G  !!!           |
|           W    W  A    A  R    R  N N  N  II  N N  N  G       !!!           |
|           W WW W  AAAAAA  RRRRR   N  N N  II  N  N N  G  GGG   !            |
|           WW  WW  A    A  R   R   N   NN  II  N   NN  G    G                |
|           W    W  A    A  R    R  N    N  II  N    N   GGGG   !!!           |
|                                                                             |
|      VASP found  21165 degrees of freedom                                   |
|      the temperature will equal 2*E(kin)/ (degrees of freedom)              |
|      this differs from previous releases, where T was 2*E(kin)/(3 NIONS).   |
|      The new definition is more consistent                                  |
|                                                                             |
 ----------------------------------------------------------------------------- 

 Random init:       12714       20285
 Random init:       12714       20285
 Random init:       12714       20285
 Random init:       12714       20285
 alloco spazio per displ
 Random init:       12714       20285
 Random init:       12714       20285
       10 T=  4358. E= -.26584592E+05 F= -.30559231E+05 EK= 0.39746E+04 SP= 0.00E+00 SK= 0.00E+00
       20 T=  4189. E= -.26584304E+05 F= -.30404284E+05 EK= 0.38200E+04 SP= 0.00E+00 SK= 0.00E+00
       30 T=  4236. E= -.26584546E+05 F= -.30447119E+05 EK= 0.38626E+04 SP= 0.00E+00 SK= 0.00E+00
       40 T=  4250. E= -.26584443E+05 F= -.30460195E+05 EK= 0.38758E+04 SP= 0.00E+00 SK= 0.00E+00
       50 T=  4265. E= -.26584583E+05 F= -.30474130E+05 EK= 0.38895E+04 SP= 0.00E+00 SK= 0.00E+00
       60 T=  4209. E= -.26584402E+05 F= -.30422459E+05 EK= 0.38381E+04 SP= 0.00E+00 SK= 0.00E+00
       70 T=  4246. E= -.26584475E+05 F= -.30456112E+05 EK= 0.38716E+04 SP= 0.00E+00 SK= 0.00E+00
       80 T=  4245. E= -.26584444E+05 F= -.30455178E+05 EK= 0.38707E+04 SP= 0.00E+00 SK= 0.00E+00
       90 T=  4196. E= -.26584418E+05 F= -.30410912E+05 EK= 0.38265E+04 SP= 0.00E+00 SK= 0.00E+00
      100 T=  4158. E= -.26584305E+05 F= -.30376165E+05 EK= 0.37919E+04 SP= 0.00E+00 SK= 0.00E+00
      110 T=  4217. E= -.26584435E+05 F= -.30430076E+05 EK= 0.38456E+04 SP= 0.00E+00 SK= 0.00E+00
      120 T=  4238. E= -.26584461E+05 F= -.30449433E+05 EK= 0.38650E+04 SP= 0.00E+00 SK= 0.00E+00
      130 T=  4184. E= -.26584349E+05 F= -.30400040E+05 EK= 0.38157E+04 SP= 0.00E+00 SK= 0.00E+00
      140 T=  4211. E= -.26584407E+05 F= -.30424781E+05 EK= 0.38404E+04 SP= 0.00E+00 SK= 0.00E+00
      150 T=  4236. E= -.26584483E+05 F= -.30447694E+05 EK= 0.38632E+04 SP= 0.00E+00 SK= 0.00E+00
      160 T=  4129. E= -.26584296E+05 F= -.30349750E+05 EK= 0.37655E+04 SP= 0.00E+00 SK= 0.00E+00
      170 T=  4119. E= -.26584297E+05 F= -.30340720E+05 EK= 0.37564E+04 SP= 0.00E+00 SK= 0.00E+00
      180 T=  4179. E= -.26584422E+05 F= -.30395438E+05 EK= 0.38110E+04 SP= 0.00E+00 SK= 0.00E+00
      190 T=  4146. E= -.26584339E+05 F= -.30365235E+05 EK= 0.37809E+04 SP= 0.00E+00 SK= 0.00E+00
      200 T=  4153. E= -.26584334E+05 F= -.30371475E+05 EK= 0.37871E+04 SP= 0.00E+00 SK= 0.00E+00
      210 T=  4208. E= -.26584486E+05 F= -.30421541E+05 EK= 0.38371E+04 SP= 0.00E+00 SK= 0.00E+00
      220 T=  4174. E= -.26584321E+05 F= -.30390836E+05 EK= 0.38065E+04 SP= 0.00E+00 SK= 0.00E+00
      230 T=  4192. E= -.26584436E+05 F= -.30407032E+05 EK= 0.38226E+04 SP= 0.00E+00 SK= 0.00E+00
      240 T=  4204. E= -.26584422E+05 F= -.30418587E+05 EK= 0.38342E+04 SP= 0.00E+00 SK= 0.00E+00
      250 T=  4150. E= -.26584256E+05 F= -.30369039E+05 EK= 0.37848E+04 SP= 0.00E+00 SK= 0.00E+00
      260 T=  4165. E= -.26584341E+05 F= -.30382709E+05 EK= 0.37984E+04 SP= 0.00E+00 SK= 0.00E+00
      270 T=  4168. E= -.26584316E+05 F= -.30385224E+05 EK= 0.38009E+04 SP= 0.00E+00 SK= 0.00E+00
      280 T=  4175. E= -.26584298E+05 F= -.30391925E+05 EK= 0.38076E+04 SP= 0.00E+00 SK= 0.00E+00
      290 T=  4186. E= -.26584315E+05 F= -.30401797E+05 EK= 0.38175E+04 SP= 0.00E+00 SK= 0.00E+00
      300 T=  4170. E= -.26584320E+05 F= -.30387503E+05 EK= 0.38032E+04 SP= 0.00E+00 SK= 0.00E+00
      310 T=  4128. E= -.26584212E+05 F= -.30348786E+05 EK= 0.37646E+04 SP= 0.00E+00 SK= 0.00E+00
      320 T=  4153. E= -.26584270E+05 F= -.30371315E+05 EK= 0.37870E+04 SP= 0.00E+00 SK= 0.00E+00
      330 T=  4137. E= -.26584170E+05 F= -.30356431E+05 EK= 0.37723E+04 SP= 0.00E+00 SK= 0.00E+00
      340 T=  4118. E= -.26584107E+05 F= -.30339287E+05 EK= 0.37552E+04 SP= 0.00E+00 SK= 0.00E+00
      350 T=  4189. E= -.26584257E+05 F= -.30404543E+05 EK= 0.38203E+04 SP= 0.00E+00 SK= 0.00E+00
      360 T=  4167. E= -.26584208E+05 F= -.30384175E+05 EK= 0.38000E+04 SP= 0.00E+00 SK= 0.00E+00
      370 T=  4152. E= -.26584186E+05 F= -.30370209E+05 EK= 0.37860E+04 SP= 0.00E+00 SK= 0.00E+00
      380 T=  4188. E= -.26584297E+05 F= -.30403091E+05 EK= 0.38188E+04 SP= 0.00E+00 SK= 0.00E+00
      390 T=  4155. E= -.26584268E+05 F= -.30373044E+05 EK= 0.37888E+04 SP= 0.00E+00 SK= 0.00E+00
      400 T=  4122. E= -.26584177E+05 F= -.30343119E+05 EK= 0.37589E+04 SP= 0.00E+00 SK= 0.00E+00
      410 T=  4166. E= -.26584287E+05 F= -.30383800E+05 EK= 0.37995E+04 SP= 0.00E+00 SK= 0.00E+00
      420 T=  4152. E= -.26584206E+05 F= -.30370552E+05 EK= 0.37863E+04 SP= 0.00E+00 SK= 0.00E+00
      430 T=  4104. E= -.26584099E+05 F= -.30326946E+05 EK= 0.37428E+04 SP= 0.00E+00 SK= 0.00E+00
      440 T=  4139. E= -.26584174E+05 F= -.30358494E+05 EK= 0.37743E+04 SP= 0.00E+00 SK= 0.00E+00
      450 T=  4182. E= -.26584243E+05 F= -.30397515E+05 EK= 0.38133E+04 SP= 0.00E+00 SK= 0.00E+00
      460 T=  4176. E= -.26584164E+05 F= -.30392584E+05 EK= 0.38084E+04 SP= 0.00E+00 SK= 0.00E+00
      470 T=  4182. E= -.26584182E+05 F= -.30397654E+05 EK= 0.38135E+04 SP= 0.00E+00 SK= 0.00E+00
      480 T=  4132. E= -.26584219E+05 F= -.30352642E+05 EK= 0.37684E+04 SP= 0.00E+00 SK= 0.00E+00
      490 T=  4106. E= -.26584170E+05 F= -.30328692E+05 EK= 0.37445E+04 SP= 0.00E+00 SK= 0.00E+00
      500 T=  4119. E= -.26584118E+05 F= -.30340562E+05 EK= 0.37564E+04 SP= 0.00E+00 SK= 0.00E+00
      510 T=  4174. E= -.26584244E+05 F= -.30390847E+05 EK= 0.38066E+04 SP= 0.00E+00 SK= 0.00E+00
      520 T=  4170. E= -.26584217E+05 F= -.30386945E+05 EK= 0.38027E+04 SP= 0.00E+00 SK= 0.00E+00
      530 T=  4095. E= -.26584076E+05 F= -.30318737E+05 EK= 0.37347E+04 SP= 0.00E+00 SK= 0.00E+00
      540 T=  4111. E= -.26584228E+05 F= -.30332918E+05 EK= 0.37487E+04 SP= 0.00E+00 SK= 0.00E+00
      550 T=  4104. E= -.26584159E+05 F= -.30326504E+05 EK= 0.37423E+04 SP= 0.00E+00 SK= 0.00E+00
      560 T=  4121. E= -.26584229E+05 F= -.30342405E+05 EK= 0.37582E+04 SP= 0.00E+00 SK= 0.00E+00
      570 T=  4128. E= -.26584177E+05 F= -.30348495E+05 EK= 0.37643E+04 SP= 0.00E+00 SK= 0.00E+00
      580 T=  4103. E= -.26584052E+05 F= -.30325443E+05 EK= 0.37414E+04 SP= 0.00E+00 SK= 0.00E+00
      590 T=  4115. E= -.26584197E+05 F= -.30336830E+05 EK= 0.37526E+04 SP= 0.00E+00 SK= 0.00E+00
      600 T=  4068. E= -.26583956E+05 F= -.30293486E+05 EK= 0.37095E+04 SP= 0.00E+00 SK= 0.00E+00
      610 T=  4123. E= -.26584158E+05 F= -.30343738E+05 EK= 0.37596E+04 SP= 0.00E+00 SK= 0.00E+00
      620 T=  4104. E= -.26584035E+05 F= -.30326960E+05 EK= 0.37429E+04 SP= 0.00E+00 SK= 0.00E+00
      630 T=  4116. E= -.26584059E+05 F= -.30337572E+05 EK= 0.37535E+04 SP= 0.00E+00 SK= 0.00E+00
      640 T=  4095. E= -.26584135E+05 F= -.30318885E+05 EK= 0.37348E+04 SP= 0.00E+00 SK= 0.00E+00
      650 T=  4043. E= -.26583951E+05 F= -.30271107E+05 EK= 0.36872E+04 SP= 0.00E+00 SK= 0.00E+00
      660 T=  4098. E= -.26584117E+05 F= -.30320891E+05 EK= 0.37368E+04 SP= 0.00E+00 SK= 0.00E+00
      670 T=  4105. E= -.26584081E+05 F= -.30327565E+05 EK= 0.37435E+04 SP= 0.00E+00 SK= 0.00E+00
      680 T=  4064. E= -.26583933E+05 F= -.30290401E+05 EK= 0.37065E+04 SP= 0.00E+00 SK= 0.00E+00
      690 T=  4079. E= -.26584005E+05 F= -.30303384E+05 EK= 0.37194E+04 SP= 0.00E+00 SK= 0.00E+00
      700 T=  4103. E= -.26584036E+05 F= -.30325806E+05 EK= 0.37418E+04 SP= 0.00E+00 SK= 0.00E+00
      710 T=  4102. E= -.26584086E+05 F= -.30324473E+05 EK= 0.37404E+04 SP= 0.00E+00 SK= 0.00E+00
      720 T=  4061. E= -.26584119E+05 F= -.30287080E+05 EK= 0.37030E+04 SP= 0.00E+00 SK= 0.00E+00
      730 T=  4021. E= -.26583990E+05 F= -.30250588E+05 EK= 0.36666E+04 SP= 0.00E+00 SK= 0.00E+00
      740 T=  4079. E= -.26584105E+05 F= -.30303800E+05 EK= 0.37197E+04 SP= 0.00E+00 SK= 0.00E+00
      750 T=  4101. E= -.26584095E+05 F= -.30323903E+05 EK= 0.37398E+04 SP= 0.00E+00 SK= 0.00E+00
      760 T=  4048. E= -.26584017E+05 F= -.30275766E+05 EK= 0.36917E+04 SP= 0.00E+00 SK= 0.00E+00
      770 T=  4059. E= -.26583969E+05 F= -.30285450E+05 EK= 0.37015E+04 SP= 0.00E+00 SK= 0.00E+00
      780 T=  4079. E= -.26584060E+05 F= -.30303986E+05 EK= 0.37199E+04 SP= 0.00E+00 SK= 0.00E+00
      790 T=  4073. E= -.26584007E+05 F= -.30298697E+05 EK= 0.37147E+04 SP= 0.00E+00 SK= 0.00E+00
      800 T=  4089. E= -.26584054E+05 F= -.30312959E+05 EK= 0.37289E+04 SP= 0.00E+00 SK= 0.00E+00
      810 T=  4080. E= -.26584117E+05 F= -.30304473E+05 EK= 0.37204E+04 SP= 0.00E+00 SK= 0.00E+00
      820 T=  4035. E= -.26583956E+05 F= -.30263743E+05 EK= 0.36798E+04 SP= 0.00E+00 SK= 0.00E+00
      830 T=  4025. E= -.26583927E+05 F= -.30254324E+05 EK= 0.36704E+04 SP= 0.00E+00 SK= 0.00E+00
      840 T=  4092. E= -.26584022E+05 F= -.30315900E+05 EK= 0.37319E+04 SP= 0.00E+00 SK= 0.00E+00
      850 T=  4069. E= -.26583803E+05 F= -.30294299E+05 EK= 0.37105E+04 SP= 0.00E+00 SK= 0.00E+00
      860 T=  4041. E= -.26583822E+05 F= -.30268844E+05 EK= 0.36850E+04 SP= 0.00E+00 SK= 0.00E+00
      870 T=  4078. E= -.26583986E+05 F= -.30302811E+05 EK= 0.37188E+04 SP= 0.00E+00 SK= 0.00E+00
      880 T=  4044. E= -.26583827E+05 F= -.30271862E+05 EK= 0.36880E+04 SP= 0.00E+00 SK= 0.00E+00
      890 T=  4056. E= -.26583831E+05 F= -.30282704E+05 EK= 0.36989E+04 SP= 0.00E+00 SK= 0.00E+00
      900 T=  4080. E= -.26583917E+05 F= -.30305010E+05 EK= 0.37211E+04 SP= 0.00E+00 SK= 0.00E+00
      910 T=  4038. E= -.26583712E+05 F= -.30266486E+05 EK= 0.36828E+04 SP= 0.00E+00 SK= 0.00E+00
      920 T=  4088. E= -.26583867E+05 F= -.30311454E+05 EK= 0.37276E+04 SP= 0.00E+00 SK= 0.00E+00
      930 T=  4090. E= -.26583795E+05 F= -.30313312E+05 EK= 0.37295E+04 SP= 0.00E+00 SK= 0.00E+00
      940 T=  4070. E= -.26583810E+05 F= -.30295701E+05 EK= 0.37119E+04 SP= 0.00E+00 SK= 0.00E+00
      950 T=  4067. E= -.26583769E+05 F= -.30292346E+05 EK= 0.37086E+04 SP= 0.00E+00 SK= 0.00E+00
      960 T=  4084. E= -.26583810E+05 F= -.30308490E+05 EK= 0.37247E+04 SP= 0.00E+00 SK= 0.00E+00
      970 T=  4048. E= -.26583890E+05 F= -.30275388E+05 EK= 0.36915E+04 SP= 0.00E+00 SK= 0.00E+00
      980 T=  3955. E= -.26583781E+05 F= -.30190153E+05 EK= 0.36064E+04 SP= 0.00E+00 SK= 0.00E+00
      990 T=  4019. E= -.26583939E+05 F= -.30249278E+05 EK= 0.36653E+04 SP= 0.00E+00 SK= 0.00E+00
     1000 T=  4038. E= -.26583834E+05 F= -.30266297E+05 EK= 0.36825E+04 SP= 0.00E+00 SK= 0.00E+00
     1010 T=  4036. E= -.26583842E+05 F= -.30264161E+05 EK= 0.36803E+04 SP= 0.00E+00 SK= 0.00E+00
     1020 T=  4095. E= -.26583918E+05 F= -.30317993E+05 EK= 0.37341E+04 SP= 0.00E+00 SK= 0.00E+00
     1030 T=  4069. E= -.26583963E+05 F= -.30294238E+05 EK= 0.37103E+04 SP= 0.00E+00 SK= 0.00E+00
     1040 T=  3970. E= -.26583751E+05 F= -.30203756E+05 EK= 0.36200E+04 SP= 0.00E+00 SK= 0.00E+00
     1050 T=  4035. E= -.26583939E+05 F= -.30263223E+05 EK= 0.36793E+04 SP= 0.00E+00 SK= 0.00E+00
     1060 T=  4029. E= -.26583802E+05 F= -.30257903E+05 EK= 0.36741E+04 SP= 0.00E+00 SK= 0.00E+00
     1070 T=  4057. E= -.26583774E+05 F= -.30283382E+05 EK= 0.36996E+04 SP= 0.00E+00 SK= 0.00E+00
     1080 T=  4060. E= -.26583696E+05 F= -.30286299E+05 EK= 0.37026E+04 SP= 0.00E+00 SK= 0.00E+00
     1090 T=  4044. E= -.26583760E+05 F= -.30271797E+05 EK= 0.36880E+04 SP= 0.00E+00 SK= 0.00E+00
     1100 T=  4027. E= -.26583759E+05 F= -.30255988E+05 EK= 0.36722E+04 SP= 0.00E+00 SK= 0.00E+00
     1110 T=  4029. E= -.26583699E+05 F= -.30257649E+05 EK= 0.36739E+04 SP= 0.00E+00 SK= 0.00E+00
     1120 T=  4060. E= -.26583851E+05 F= -.30286489E+05 EK= 0.37026E+04 SP= 0.00E+00 SK= 0.00E+00
     1130 T=  4030. E= -.26583782E+05 F= -.30258850E+05 EK= 0.36751E+04 SP= 0.00E+00 SK= 0.00E+00
     1140 T=  4026. E= -.26583800E+05 F= -.30255527E+05 EK= 0.36717E+04 SP= 0.00E+00 SK= 0.00E+00
     1150 T=  4010. E= -.26583683E+05 F= -.30240128E+05 EK= 0.36564E+04 SP= 0.00E+00 SK= 0.00E+00
     1160 T=  4085. E= -.26583963E+05 F= -.30309158E+05 EK= 0.37252E+04 SP= 0.00E+00 SK= 0.00E+00
     1170 T=  4039. E= -.26583801E+05 F= -.30267418E+05 EK= 0.36836E+04 SP= 0.00E+00 SK= 0.00E+00
     1180 T=  3986. E= -.26583684E+05 F= -.30218755E+05 EK= 0.36351E+04 SP= 0.00E+00 SK= 0.00E+00
     1190 T=  4042. E= -.26583792E+05 F= -.30269709E+05 EK= 0.36859E+04 SP= 0.00E+00 SK= 0.00E+00
     1200 T=  4075. E= -.26583764E+05 F= -.30299955E+05 EK= 0.37162E+04 SP= 0.00E+00 SK= 0.00E+00
     1210 T=  4024. E= -.26583601E+05 F= -.30253438E+05 EK= 0.36698E+04 SP= 0.00E+00 SK= 0.00E+00
     1220 T=  4033. E= -.26583687E+05 F= -.30261506E+05 EK= 0.36778E+04 SP= 0.00E+00 SK= 0.00E+00
     1230 T=  4064. E= -.26583632E+05 F= -.30289484E+05 EK= 0.37059E+04 SP= 0.00E+00 SK= 0.00E+00
     1240 T=  4056. E= -.26583657E+05 F= -.30282469E+05 EK= 0.36988E+04 SP= 0.00E+00 SK= 0.00E+00
     1250 T=  4027. E= -.26583573E+05 F= -.30256037E+05 EK= 0.36725E+04 SP= 0.00E+00 SK= 0.00E+00
     1260 T=  4082. E= -.26583760E+05 F= -.30305994E+05 EK= 0.37222E+04 SP= 0.00E+00 SK= 0.00E+00
     1270 T=  4043. E= -.26583557E+05 F= -.30270284E+05 EK= 0.36867E+04 SP= 0.00E+00 SK= 0.00E+00
     1280 T=  4062. E= -.26583706E+05 F= -.30288119E+05 EK= 0.37044E+04 SP= 0.00E+00 SK= 0.00E+00
     1290 T=  4040. E= -.26583603E+05 F= -.30267916E+05 EK= 0.36843E+04 SP= 0.00E+00 SK= 0.00E+00
     1300 T=  4028. E= -.26583573E+05 F= -.30256621E+05 EK= 0.36730E+04 SP= 0.00E+00 SK= 0.00E+00
     1310 T=  4044. E= -.26583636E+05 F= -.30271615E+05 EK= 0.36880E+04 SP= 0.00E+00 SK= 0.00E+00
     1320 T=  3982. E= -.26583569E+05 F= -.30214975E+05 EK= 0.36314E+04 SP= 0.00E+00 SK= 0.00E+00
     1330 T=  3968. E= -.26583552E+05 F= -.30202285E+05 EK= 0.36187E+04 SP= 0.00E+00 SK= 0.00E+00
     1340 T=  4027. E= -.26583627E+05 F= -.30256038E+05 EK= 0.36724E+04 SP= 0.00E+00 SK= 0.00E+00
     1350 T=  4052. E= -.26583628E+05 F= -.30279068E+05 EK= 0.36954E+04 SP= 0.00E+00 SK= 0.00E+00
     1360 T=  3993. E= -.26583473E+05 F= -.30224683E+05 EK= 0.36412E+04 SP= 0.00E+00 SK= 0.00E+00
     1370 T=  4029. E= -.26583596E+05 F= -.30257332E+05 EK= 0.36737E+04 SP= 0.00E+00 SK= 0.00E+00
     1380 T=  4025. E= -.26583558E+05 F= -.30254516E+05 EK= 0.36710E+04 SP= 0.00E+00 SK= 0.00E+00
     1390 T=  3998. E= -.26583518E+05 F= -.30229100E+05 EK= 0.36456E+04 SP= 0.00E+00 SK= 0.00E+00
     1400 T=  4005. E= -.26583538E+05 F= -.30236012E+05 EK= 0.36525E+04 SP= 0.00E+00 SK= 0.00E+00
     1410 T=  4006. E= -.26583541E+05 F= -.30236626E+05 EK= 0.36531E+04 SP= 0.00E+00 SK= 0.00E+00
     1420 T=  3988. E= -.26583489E+05 F= -.30219891E+05 EK= 0.36364E+04 SP= 0.00E+00 SK= 0.00E+00
     1430 T=  3983. E= -.26583438E+05 F= -.30216126E+05 EK= 0.36327E+04 SP= 0.00E+00 SK= 0.00E+00
     1440 T=  4009. E= -.26583507E+05 F= -.30239867E+05 EK= 0.36564E+04 SP= 0.00E+00 SK= 0.00E+00
     1450 T=  4007. E= -.26583498E+05 F= -.30237685E+05 EK= 0.36542E+04 SP= 0.00E+00 SK= 0.00E+00
     1460 T=  3993. E= -.26583501E+05 F= -.30224937E+05 EK= 0.36414E+04 SP= 0.00E+00 SK= 0.00E+00
     1470 T=  4009. E= -.26583498E+05 F= -.30239425E+05 EK= 0.36559E+04 SP= 0.00E+00 SK= 0.00E+00
     1480 T=  4030. E= -.26583530E+05 F= -.30258614E+05 EK= 0.36751E+04 SP= 0.00E+00 SK= 0.00E+00
     1490 T=  4007. E= -.26583622E+05 F= -.30237389E+05 EK= 0.36538E+04 SP= 0.00E+00 SK= 0.00E+00
     1500 T=  3977. E= -.26583528E+05 F= -.30210342E+05 EK= 0.36268E+04 SP= 0.00E+00 SK= 0.00E+00
     1510 T=  4013. E= -.26583739E+05 F= -.30243656E+05 EK= 0.36599E+04 SP= 0.00E+00 SK= 0.00E+00
     1520 T=  3982. E= -.26583562E+05 F= -.30215143E+05 EK= 0.36316E+04 SP= 0.00E+00 SK= 0.00E+00
     1530 T=  3978. E= -.26583552E+05 F= -.30211661E+05 EK= 0.36281E+04 SP= 0.00E+00 SK= 0.00E+00
     1540 T=  3976. E= -.26583535E+05 F= -.30209451E+05 EK= 0.36259E+04 SP= 0.00E+00 SK= 0.00E+00
     1550 T=  3971. E= -.26583439E+05 F= -.30204387E+05 EK= 0.36209E+04 SP= 0.00E+00 SK= 0.00E+00
     1560 T=  3976. E= -.26583496E+05 F= -.30209207E+05 EK= 0.36257E+04 SP= 0.00E+00 SK= 0.00E+00
     1570 T=  3948. E= -.26583392E+05 F= -.30184102E+05 EK= 0.36007E+04 SP= 0.00E+00 SK= 0.00E+00
     1580 T=  3970. E= -.26583456E+05 F= -.30203877E+05 EK= 0.36204E+04 SP= 0.00E+00 SK= 0.00E+00
     1590 T=  3979. E= -.26583413E+05 F= -.30211599E+05 EK= 0.36282E+04 SP= 0.00E+00 SK= 0.00E+00
     1600 T=  4021. E= -.26583581E+05 F= -.30250209E+05 EK= 0.36666E+04 SP= 0.00E+00 SK= 0.00E+00
     1610 T=  3971. E= -.26583500E+05 F= -.30204911E+05 EK= 0.36214E+04 SP= 0.00E+00 SK= 0.00E+00
     1620 T=  3958. E= -.26583488E+05 F= -.30193125E+05 EK= 0.36096E+04 SP= 0.00E+00 SK= 0.00E+00
     1630 T=  4029. E= -.26583631E+05 F= -.30257379E+05 EK= 0.36737E+04 SP= 0.00E+00 SK= 0.00E+00
     1640 T=  3954. E= -.26583359E+05 F= -.30188696E+05 EK= 0.36053E+04 SP= 0.00E+00 SK= 0.00E+00
     1650 T=  3982. E= -.26583578E+05 F= -.30215038E+05 EK= 0.36315E+04 SP= 0.00E+00 SK= 0.00E+00
     1660 T=  3955. E= -.26583404E+05 F= -.30189897E+05 EK= 0.36065E+04 SP= 0.00E+00 SK= 0.00E+00
     1670 T=  4023. E= -.26583577E+05 F= -.30252322E+05 EK= 0.36687E+04 SP= 0.00E+00 SK= 0.00E+00
     1680 T=  4027. E= -.26583650E+05 F= -.30256029E+05 EK= 0.36724E+04 SP= 0.00E+00 SK= 0.00E+00
     1690 T=  3961. E= -.26583479E+05 F= -.30195605E+05 EK= 0.36121E+04 SP= 0.00E+00 SK= 0.00E+00
     1700 T=  4027. E= -.26583648E+05 F= -.30256147E+05 EK= 0.36725E+04 SP= 0.00E+00 SK= 0.00E+00
     1710 T=  4019. E= -.26583628E+05 F= -.30248918E+05 EK= 0.36653E+04 SP= 0.00E+00 SK= 0.00E+00
     1720 T=  3951. E= -.26583459E+05 F= -.30186726E+05 EK= 0.36033E+04 SP= 0.00E+00 SK= 0.00E+00
     1730 T=  4004. E= -.26583608E+05 F= -.30235004E+05 EK= 0.36514E+04 SP= 0.00E+00 SK= 0.00E+00
     1740 T=  4024. E= -.26583629E+05 F= -.30253366E+05 EK= 0.36697E+04 SP= 0.00E+00 SK= 0.00E+00
     1750 T=  3984. E= -.26583527E+05 F= -.30216235E+05 EK= 0.36327E+04 SP= 0.00E+00 SK= 0.00E+00
     1760 T=  3973. E= -.26583505E+05 F= -.30206825E+05 EK= 0.36233E+04 SP= 0.00E+00 SK= 0.00E+00
     1770 T=  3975. E= -.26583510E+05 F= -.30208232E+05 EK= 0.36247E+04 SP= 0.00E+00 SK= 0.00E+00
     1780 T=  3989. E= -.26583508E+05 F= -.30221231E+05 EK= 0.36377E+04 SP= 0.00E+00 SK= 0.00E+00
     1790 T=  4031. E= -.26583689E+05 F= -.30259710E+05 EK= 0.36760E+04 SP= 0.00E+00 SK= 0.00E+00
     1800 T=  3912. E= -.26583378E+05 F= -.30150579E+05 EK= 0.35672E+04 SP= 0.00E+00 SK= 0.00E+00
     1810 T=  3962. E= -.26583688E+05 F= -.30197112E+05 EK= 0.36134E+04 SP= 0.00E+00 SK= 0.00E+00
     1820 T=  3979. E= -.26583698E+05 F= -.30211980E+05 EK= 0.36283E+04 SP= 0.00E+00 SK= 0.00E+00
     1830 T=  3954. E= -.26583593E+05 F= -.30189773E+05 EK= 0.36062E+04 SP= 0.00E+00 SK= 0.00E+00
     1840 T=  4001. E= -.26583839E+05 F= -.30232381E+05 EK= 0.36485E+04 SP= 0.00E+00 SK= 0.00E+00
     1850 T=  3939. E= -.26583635E+05 F= -.30175668E+05 EK= 0.35920E+04 SP= 0.00E+00 SK= 0.00E+00
     1860 T=  3965. E= -.26583647E+05 F= -.30199783E+05 EK= 0.36161E+04 SP= 0.00E+00 SK= 0.00E+00
     1870 T=  3991. E= -.26583740E+05 F= -.30223129E+05 EK= 0.36394E+04 SP= 0.00E+00 SK= 0.00E+00
     1880 T=  3958. E= -.26583647E+05 F= -.30193041E+05 EK= 0.36094E+04 SP= 0.00E+00 SK= 0.00E+00
     1890 T=  3968. E= -.26583733E+05 F= -.30202728E+05 EK= 0.36190E+04 SP= 0.00E+00 SK= 0.00E+00
     1900 T=  3976. E= -.26583695E+05 F= -.30209724E+05 EK= 0.36260E+04 SP= 0.00E+00 SK= 0.00E+00
     1910 T=  3976. E= -.26583837E+05 F= -.30210077E+05 EK= 0.36262E+04 SP= 0.00E+00 SK= 0.00E+00
     1920 T=  3858. E= -.26583593E+05 F= -.30101526E+05 EK= 0.35179E+04 SP= 0.00E+00 SK= 0.00E+00
     1930 T=  3923. E= -.26583796E+05 F= -.30160874E+05 EK= 0.35771E+04 SP= 0.00E+00 SK= 0.00E+00
     1940 T=  3974. E= -.26583765E+05 F= -.30207651E+05 EK= 0.36239E+04 SP= 0.00E+00 SK= 0.00E+00
     1950 T=  3957. E= -.26583701E+05 F= -.30192410E+05 EK= 0.36087E+04 SP= 0.00E+00 SK= 0.00E+00
     1960 T=  3953. E= -.26583627E+05 F= -.30188826E+05 EK= 0.36052E+04 SP= 0.00E+00 SK= 0.00E+00
     1970 T=  3965. E= -.26583698E+05 F= -.30199567E+05 EK= 0.36159E+04 SP= 0.00E+00 SK= 0.00E+00
     1980 T=  3944. E= -.26583574E+05 F= -.30180414E+05 EK= 0.35968E+04 SP= 0.00E+00 SK= 0.00E+00
     1990 T=  3987. E= -.26583805E+05 F= -.30219596E+05 EK= 0.36358E+04 SP= 0.00E+00 SK= 0.00E+00
At line 1940 of file md.f90
Fortran runtime error: Unit number is negative and unit was not already opened with OPEN(NEWUNIT=...)

Error termination. Backtrace:
At line 1940 of file md.f90
Fortran runtime error: Unit number is negative and unit was not already opened with OPEN(NEWUNIT=...)

Error termination. Backtrace:
At line 1940 of file md.f90
Fortran runtime error: Unit number is negative and unit was not already opened with OPEN(NEWUNIT=...)

Error termination. Backtrace:
At line 1940 of file md.f90
Fortran runtime error: Unit number is negative and unit was not already opened with OPEN(NEWUNIT=...)

Error termination. Backtrace:
At line 1940 of file md.f90
Fortran runtime error: Unit number is negative and unit was not already opened with OPEN(NEWUNIT=...)

Error termination. Backtrace:
     2000 T=  3922. E= -.26583677E+05 F= -.30159834E+05 EK= 0.35762E+04 SP= 0.00E+00 SK= 0.00E+00
Rc and Rl:   5.500000  7.321000

Average number of steps between two list updates:  19.05
Average number of atoms in the shell:     0.01
#0  0x7f8ad44b4d11 in ???
#1  0x7f8ad44b5859 in ???
#2  0x7f8ad44b653f in ???
#3  0x55fe0d3f30bc in ???
#4  0x55fe0d3ee92e in ???
#5  0x7f8ad414b082 in __libc_start_main
	at ../csu/libc-start.c:308
#6  0x55fe0d3ee96d in ???
#7  0xffffffffffffffff in ???
#0  0x7fd18cc1dd11 in ???
#1  0x7fd18cc1e859 in ???
#2  0x7fd18cc1f53f in ???
#3  0x559b0a35c0bc in ???
#4  0x559b0a35792e in ???
#5  0x7fd18c8b4082 in __libc_start_main
	at ../csu/libc-start.c:308
#6  0x559b0a35796d in ???
#7  0xffffffffffffffff in ???
#0  0x7fbe3e0b8d11 in ???
#1  0x7fbe3e0b9859 in ???
#2  0x7fbe3e0ba53f in ???
#3  0x55ac9579e0bc in ???
#4  0x55ac9579992e in ???
#5  0x7fbe3dd4f082 in __libc_start_main
	at ../csu/libc-start.c:308
#6  0x55ac9579996d in ???
#7  0xffffffffffffffff in ???
#0  0x7ff515ba6d11 in ???
#1  0x7ff515ba7859 in ???
#2  0x7ff515ba853f in ???
#3  0x560052e240bc in ???
#4  0x560052e1f92e in ???
#5  0x7ff51583d082 in __libc_start_main
	at ../csu/libc-start.c:308
#6  0x560052e1f96d in ???
#7  0xffffffffffffffff in ???
