 running on    6 nodes
 distr:  one band on    1 nodes,    6 groups
 md.x 0.99
 POSCAR found :  1 types and     7056 ions
Rc and Rl:   5.500000  7.321000
 TIPO = eam     
 TIPO1 = uknown p
 Using EAM

 EAM parameters: 
 C  =   9.9634  EPS  = 0.2048  A  = 3.5678  M  = 3.127  N  =  6.366  R1 =   5.500000


 ----------------------------------------------------------------------------- 
|                                                                             |
|           W    W    AA    RRRRR   N    N  II  N    N   GGGG   !!!           |
|           W    W   A  A   R    R  NN   N  II  NN   N  G    G  !!!           |
|           W    W  A    A  R    R  N N  N  II  N N  N  G       !!!           |
|           W WW W  AAAAAA  RRRRR   N  N N  II  N  N N  G  GGG   !            |
|           WW  WW  A    A  R   R   N   NN  II  N   NN  G    G                |
|           W    W  A    A  R    R  N    N  II  N    N   GGGG   !!!           |
|                                                                             |
|      VASP found  21165 degrees of freedom                                   |
|      the temperature will equal 2*E(kin)/ (degrees of freedom)              |
|      this differs from previous releases, where T was 2*E(kin)/(3 NIONS).   |
|      The new definition is more consistent                                  |
|                                                                             |
 ----------------------------------------------------------------------------- 

 Random init:       13350       20921
 Random init:       13350       20921
 alloco spazio per displ
 Random init:       13350       20921
 Random init:       13350       20921
 Random init:       13350       20921
 Random init:       13350       20921
       10 T=  2418. E= -.30983557E+05 F= -.33188502E+05 EK= 0.22049E+04 SP= 0.00E+00 SK= 0.00E+00
       20 T=  2371. E= -.30983406E+05 F= -.33145218E+05 EK= 0.21618E+04 SP= 0.00E+00 SK= 0.00E+00
       30 T=  2357. E= -.30983450E+05 F= -.33132845E+05 EK= 0.21494E+04 SP= 0.00E+00 SK= 0.00E+00
       40 T=  2344. E= -.30983397E+05 F= -.33120735E+05 EK= 0.21373E+04 SP= 0.00E+00 SK= 0.00E+00
       50 T=  2345. E= -.30983457E+05 F= -.33121826E+05 EK= 0.21384E+04 SP= 0.00E+00 SK= 0.00E+00
       60 T=  2351. E= -.30983517E+05 F= -.33127184E+05 EK= 0.21437E+04 SP= 0.00E+00 SK= 0.00E+00
       70 T=  2353. E= -.30983534E+05 F= -.33129112E+05 EK= 0.21456E+04 SP= 0.00E+00 SK= 0.00E+00
       80 T=  2374. E= -.30983596E+05 F= -.33148254E+05 EK= 0.21647E+04 SP= 0.00E+00 SK= 0.00E+00
       90 T=  2339. E= -.30983526E+05 F= -.33116590E+05 EK= 0.21331E+04 SP= 0.00E+00 SK= 0.00E+00
      100 T=  2324. E= -.30983541E+05 F= -.33102606E+05 EK= 0.21191E+04 SP= 0.00E+00 SK= 0.00E+00
      110 T=  2342. E= -.30983544E+05 F= -.33119286E+05 EK= 0.21357E+04 SP= 0.00E+00 SK= 0.00E+00
      120 T=  2342. E= -.30983467E+05 F= -.33119646E+05 EK= 0.21362E+04 SP= 0.00E+00 SK= 0.00E+00
      130 T=  2365. E= -.30983509E+05 F= -.33139919E+05 EK= 0.21564E+04 SP= 0.00E+00 SK= 0.00E+00
      140 T=  2340. E= -.30983403E+05 F= -.33117752E+05 EK= 0.21343E+04 SP= 0.00E+00 SK= 0.00E+00
      150 T=  2355. E= -.30983449E+05 F= -.33131323E+05 EK= 0.21479E+04 SP= 0.00E+00 SK= 0.00E+00
      160 T=  2350. E= -.30983429E+05 F= -.33126207E+05 EK= 0.21428E+04 SP= 0.00E+00 SK= 0.00E+00
      170 T=  2343. E= -.30983398E+05 F= -.33120146E+05 EK= 0.21367E+04 SP= 0.00E+00 SK= 0.00E+00
      180 T=  2374. E= -.30983457E+05 F= -.33148776E+05 EK= 0.21653E+04 SP= 0.00E+00 SK= 0.00E+00
      190 T=  2348. E= -.30983325E+05 F= -.33124578E+05 EK= 0.21413E+04 SP= 0.00E+00 SK= 0.00E+00
      200 T=  2361. E= -.30983412E+05 F= -.33136844E+05 EK= 0.21534E+04 SP= 0.00E+00 SK= 0.00E+00
      210 T=  2383. E= -.30983430E+05 F= -.33156504E+05 EK= 0.21731E+04 SP= 0.00E+00 SK= 0.00E+00
      220 T=  2347. E= -.30983360E+05 F= -.33123860E+05 EK= 0.21405E+04 SP= 0.00E+00 SK= 0.00E+00
      230 T=  2341. E= -.30983366E+05 F= -.33118333E+05 EK= 0.21350E+04 SP= 0.00E+00 SK= 0.00E+00
      240 T=  2378. E= -.30983460E+05 F= -.33151667E+05 EK= 0.21682E+04 SP= 0.00E+00 SK= 0.00E+00
      250 T=  2374. E= -.30983404E+05 F= -.33148267E+05 EK= 0.21649E+04 SP= 0.00E+00 SK= 0.00E+00
      260 T=  2343. E= -.30983367E+05 F= -.33120209E+05 EK= 0.21368E+04 SP= 0.00E+00 SK= 0.00E+00
      270 T=  2332. E= -.30983314E+05 F= -.33110053E+05 EK= 0.21267E+04 SP= 0.00E+00 SK= 0.00E+00
      280 T=  2361. E= -.30983440E+05 F= -.33136299E+05 EK= 0.21529E+04 SP= 0.00E+00 SK= 0.00E+00
      290 T=  2344. E= -.30983385E+05 F= -.33121220E+05 EK= 0.21378E+04 SP= 0.00E+00 SK= 0.00E+00
      300 T=  2339. E= -.30983331E+05 F= -.33116142E+05 EK= 0.21328E+04 SP= 0.00E+00 SK= 0.00E+00
      310 T=  2356. E= -.30983349E+05 F= -.33131648E+05 EK= 0.21483E+04 SP= 0.00E+00 SK= 0.00E+00
      320 T=  2346. E= -.30983259E+05 F= -.33123096E+05 EK= 0.21398E+04 SP= 0.00E+00 SK= 0.00E+00
      330 T=  2364. E= -.30983279E+05 F= -.33139114E+05 EK= 0.21558E+04 SP= 0.00E+00 SK= 0.00E+00
      340 T=  2371. E= -.30983187E+05 F= -.33145096E+05 EK= 0.21619E+04 SP= 0.00E+00 SK= 0.00E+00
      350 T=  2376. E= -.30983151E+05 F= -.33150363E+05 EK= 0.21672E+04 SP= 0.00E+00 SK= 0.00E+00
      360 T=  2378. E= -.30983207E+05 F= -.33151563E+05 EK= 0.21684E+04 SP= 0.00E+00 SK= 0.00E+00
      370 T=  2341. E= -.30983121E+05 F= -.33118242E+05 EK= 0.21351E+04 SP= 0.00E+00 SK= 0.00E+00
      380 T=  2334. E= -.30983169E+05 F= -.33111437E+05 EK= 0.21283E+04 SP= 0.00E+00 SK= 0.00E+00
      390 T=  2313. E= -.30983085E+05 F= -.33092279E+05 EK= 0.21092E+04 SP= 0.00E+00 SK= 0.00E+00
      400 T=  2337. E= -.30983113E+05 F= -.33114757E+05 EK= 0.21316E+04 SP= 0.00E+00 SK= 0.00E+00
      410 T=  2352. E= -.30983102E+05 F= -.33127580E+05 EK= 0.21445E+04 SP= 0.00E+00 SK= 0.00E+00
      420 T=  2342. E= -.30983048E+05 F= -.33118538E+05 EK= 0.21355E+04 SP= 0.00E+00 SK= 0.00E+00
      430 T=  2357. E= -.30983091E+05 F= -.33132227E+05 EK= 0.21491E+04 SP= 0.00E+00 SK= 0.00E+00
      440 T=  2360. E= -.30983092E+05 F= -.33135141E+05 EK= 0.21520E+04 SP= 0.00E+00 SK= 0.00E+00
      450 T=  2374. E= -.30983118E+05 F= -.33148067E+05 EK= 0.21649E+04 SP= 0.00E+00 SK= 0.00E+00
      460 T=  2360. E= -.30983075E+05 F= -.33135275E+05 EK= 0.21522E+04 SP= 0.00E+00 SK= 0.00E+00
      470 T=  2336. E= -.30983067E+05 F= -.33113348E+05 EK= 0.21303E+04 SP= 0.00E+00 SK= 0.00E+00
      480 T=  2344. E= -.30983089E+05 F= -.33120212E+05 EK= 0.21371E+04 SP= 0.00E+00 SK= 0.00E+00
      490 T=  2338. E= -.30983032E+05 F= -.33115576E+05 EK= 0.21325E+04 SP= 0.00E+00 SK= 0.00E+00
      500 T=  2368. E= -.30983083E+05 F= -.33142978E+05 EK= 0.21599E+04 SP= 0.00E+00 SK= 0.00E+00
      510 T=  2377. E= -.30983093E+05 F= -.33150443E+05 EK= 0.21673E+04 SP= 0.00E+00 SK= 0.00E+00
      520 T=  2355. E= -.30983002E+05 F= -.33130689E+05 EK= 0.21477E+04 SP= 0.00E+00 SK= 0.00E+00
      530 T=  2356. E= -.30983057E+05 F= -.33131421E+05 EK= 0.21484E+04 SP= 0.00E+00 SK= 0.00E+00
      540 T=  2330. E= -.30982980E+05 F= -.33107988E+05 EK= 0.21250E+04 SP= 0.00E+00 SK= 0.00E+00
      550 T=  2339. E= -.30983017E+05 F= -.33116059E+05 EK= 0.21330E+04 SP= 0.00E+00 SK= 0.00E+00
      560 T=  2344. E= -.30982992E+05 F= -.33120212E+05 EK= 0.21372E+04 SP= 0.00E+00 SK= 0.00E+00
      570 T=  2347. E= -.30983005E+05 F= -.33123643E+05 EK= 0.21406E+04 SP= 0.00E+00 SK= 0.00E+00
      580 T=  2353. E= -.30983012E+05 F= -.33128668E+05 EK= 0.21457E+04 SP= 0.00E+00 SK= 0.00E+00
      590 T=  2345. E= -.30982957E+05 F= -.33121816E+05 EK= 0.21389E+04 SP= 0.00E+00 SK= 0.00E+00
      600 T=  2361. E= -.30983023E+05 F= -.33136065E+05 EK= 0.21530E+04 SP= 0.00E+00 SK= 0.00E+00
      610 T=  2348. E= -.30982993E+05 F= -.33124247E+05 EK= 0.21413E+04 SP= 0.00E+00 SK= 0.00E+00
      620 T=  2360. E= -.30983030E+05 F= -.33135408E+05 EK= 0.21524E+04 SP= 0.00E+00 SK= 0.00E+00
      630 T=  2358. E= -.30982994E+05 F= -.33133588E+05 EK= 0.21506E+04 SP= 0.00E+00 SK= 0.00E+00
      640 T=  2344. E= -.30982961E+05 F= -.33120531E+05 EK= 0.21376E+04 SP= 0.00E+00 SK= 0.00E+00
      650 T=  2348. E= -.30982980E+05 F= -.33124450E+05 EK= 0.21415E+04 SP= 0.00E+00 SK= 0.00E+00
      660 T=  2345. E= -.30982948E+05 F= -.33121247E+05 EK= 0.21383E+04 SP= 0.00E+00 SK= 0.00E+00
      670 T=  2356. E= -.30982977E+05 F= -.33131690E+05 EK= 0.21487E+04 SP= 0.00E+00 SK= 0.00E+00
      680 T=  2363. E= -.30982965E+05 F= -.33137562E+05 EK= 0.21546E+04 SP= 0.00E+00 SK= 0.00E+00
      690 T=  2357. E= -.30982979E+05 F= -.33132798E+05 EK= 0.21498E+04 SP= 0.00E+00 SK= 0.00E+00
      700 T=  2366. E= -.30982979E+05 F= -.33140311E+05 EK= 0.21573E+04 SP= 0.00E+00 SK= 0.00E+00
      710 T=  2366. E= -.30982975E+05 F= -.33140662E+05 EK= 0.21577E+04 SP= 0.00E+00 SK= 0.00E+00
      720 T=  2364. E= -.30982981E+05 F= -.33138558E+05 EK= 0.21556E+04 SP= 0.00E+00 SK= 0.00E+00
      730 T=  2369. E= -.30983062E+05 F= -.33143815E+05 EK= 0.21608E+04 SP= 0.00E+00 SK= 0.00E+00
      740 T=  2345. E= -.30983015E+05 F= -.33121921E+05 EK= 0.21389E+04 SP= 0.00E+00 SK= 0.00E+00
      750 T=  2331. E= -.30983006E+05 F= -.33108466E+05 EK= 0.21255E+04 SP= 0.00E+00 SK= 0.00E+00
      760 T=  2342. E= -.30982956E+05 F= -.33118404E+05 EK= 0.21354E+04 SP= 0.00E+00 SK= 0.00E+00
      770 T=  2361. E= -.30982994E+05 F= -.33135738E+05 EK= 0.21527E+04 SP= 0.00E+00 SK= 0.00E+00
      780 T=  2353. E= -.30982991E+05 F= -.33128883E+05 EK= 0.21459E+04 SP= 0.00E+00 SK= 0.00E+00
      790 T=  2345. E= -.30982965E+05 F= -.33121378E+05 EK= 0.21384E+04 SP= 0.00E+00 SK= 0.00E+00
      800 T=  2353. E= -.30982986E+05 F= -.33128632E+05 EK= 0.21456E+04 SP= 0.00E+00 SK= 0.00E+00
      810 T=  2352. E= -.30982984E+05 F= -.33127669E+05 EK= 0.21447E+04 SP= 0.00E+00 SK= 0.00E+00
      820 T=  2335. E= -.30982998E+05 F= -.33112737E+05 EK= 0.21297E+04 SP= 0.00E+00 SK= 0.00E+00
      830 T=  2350. E= -.30983051E+05 F= -.33126299E+05 EK= 0.21432E+04 SP= 0.00E+00 SK= 0.00E+00
      840 T=  2365. E= -.30983138E+05 F= -.33139839E+05 EK= 0.21567E+04 SP= 0.00E+00 SK= 0.00E+00
      850 T=  2353. E= -.30983097E+05 F= -.33129135E+05 EK= 0.21460E+04 SP= 0.00E+00 SK= 0.00E+00
      860 T=  2364. E= -.30983152E+05 F= -.33139343E+05 EK= 0.21562E+04 SP= 0.00E+00 SK= 0.00E+00
      870 T=  2353. E= -.30983175E+05 F= -.33128856E+05 EK= 0.21457E+04 SP= 0.00E+00 SK= 0.00E+00
      880 T=  2327. E= -.30983148E+05 F= -.33105208E+05 EK= 0.21221E+04 SP= 0.00E+00 SK= 0.00E+00
      890 T=  2348. E= -.30983180E+05 F= -.33123950E+05 EK= 0.21408E+04 SP= 0.00E+00 SK= 0.00E+00
      900 T=  2373. E= -.30983167E+05 F= -.33147031E+05 EK= 0.21639E+04 SP= 0.00E+00 SK= 0.00E+00
      910 T=  2343. E= -.30983112E+05 F= -.33119427E+05 EK= 0.21363E+04 SP= 0.00E+00 SK= 0.00E+00
      920 T=  2341. E= -.30983092E+05 F= -.33118131E+05 EK= 0.21350E+04 SP= 0.00E+00 SK= 0.00E+00
      930 T=  2380. E= -.30983141E+05 F= -.33153857E+05 EK= 0.21707E+04 SP= 0.00E+00 SK= 0.00E+00
      940 T=  2339. E= -.30983016E+05 F= -.33116089E+05 EK= 0.21331E+04 SP= 0.00E+00 SK= 0.00E+00
      950 T=  2324. E= -.30983017E+05 F= -.33102264E+05 EK= 0.21192E+04 SP= 0.00E+00 SK= 0.00E+00
      960 T=  2357. E= -.30983100E+05 F= -.33132598E+05 EK= 0.21495E+04 SP= 0.00E+00 SK= 0.00E+00
      970 T=  2343. E= -.30982992E+05 F= -.33119723E+05 EK= 0.21367E+04 SP= 0.00E+00 SK= 0.00E+00
      980 T=  2350. E= -.30982994E+05 F= -.33126204E+05 EK= 0.21432E+04 SP= 0.00E+00 SK= 0.00E+00
      990 T=  2369. E= -.30983015E+05 F= -.33143139E+05 EK= 0.21601E+04 SP= 0.00E+00 SK= 0.00E+00
     1000 T=  2346. E= -.30982931E+05 F= -.33122024E+05 EK= 0.21391E+04 SP= 0.00E+00 SK= 0.00E+00
     1010 T=  2351. E= -.30982918E+05 F= -.33126819E+05 EK= 0.21439E+04 SP= 0.00E+00 SK= 0.00E+00
     1020 T=  2387. E= -.30982984E+05 F= -.33159583E+05 EK= 0.21766E+04 SP= 0.00E+00 SK= 0.00E+00
     1030 T=  2345. E= -.30982888E+05 F= -.33121693E+05 EK= 0.21388E+04 SP= 0.00E+00 SK= 0.00E+00
     1040 T=  2337. E= -.30982880E+05 F= -.33114090E+05 EK= 0.21312E+04 SP= 0.00E+00 SK= 0.00E+00
     1050 T=  2366. E= -.30982929E+05 F= -.33140591E+05 EK= 0.21577E+04 SP= 0.00E+00 SK= 0.00E+00
     1060 T=  2360. E= -.30982861E+05 F= -.33135325E+05 EK= 0.21525E+04 SP= 0.00E+00 SK= 0.00E+00
     1070 T=  2379. E= -.30982907E+05 F= -.33152623E+05 EK= 0.21697E+04 SP= 0.00E+00 SK= 0.00E+00
     1080 T=  2366. E= -.30982908E+05 F= -.33140684E+05 EK= 0.21578E+04 SP= 0.00E+00 SK= 0.00E+00
     1090 T=  2340. E= -.30982920E+05 F= -.33117006E+05 EK= 0.21341E+04 SP= 0.00E+00 SK= 0.00E+00
     1100 T=  2341. E= -.30982915E+05 F= -.33117543E+05 EK= 0.21346E+04 SP= 0.00E+00 SK= 0.00E+00
     1110 T=  2339. E= -.30982923E+05 F= -.33115894E+05 EK= 0.21330E+04 SP= 0.00E+00 SK= 0.00E+00
     1120 T=  2350. E= -.30982957E+05 F= -.33126269E+05 EK= 0.21433E+04 SP= 0.00E+00 SK= 0.00E+00
     1130 T=  2347. E= -.30982941E+05 F= -.33123392E+05 EK= 0.21405E+04 SP= 0.00E+00 SK= 0.00E+00
     1140 T=  2361. E= -.30982964E+05 F= -.33136017E+05 EK= 0.21531E+04 SP= 0.00E+00 SK= 0.00E+00
     1150 T=  2358. E= -.30982926E+05 F= -.33133293E+05 EK= 0.21504E+04 SP= 0.00E+00 SK= 0.00E+00
     1160 T=  2360. E= -.30982982E+05 F= -.33135590E+05 EK= 0.21526E+04 SP= 0.00E+00 SK= 0.00E+00
     1170 T=  2335. E= -.30982883E+05 F= -.33111932E+05 EK= 0.21290E+04 SP= 0.00E+00 SK= 0.00E+00
     1180 T=  2356. E= -.30982929E+05 F= -.33131853E+05 EK= 0.21489E+04 SP= 0.00E+00 SK= 0.00E+00
     1190 T=  2350. E= -.30982928E+05 F= -.33125930E+05 EK= 0.21430E+04 SP= 0.00E+00 SK= 0.00E+00
     1200 T=  2329. E= -.30982896E+05 F= -.33106633E+05 EK= 0.21237E+04 SP= 0.00E+00 SK= 0.00E+00
     1210 T=  2357. E= -.30982932E+05 F= -.33132081E+05 EK= 0.21491E+04 SP= 0.00E+00 SK= 0.00E+00
     1220 T=  2350. E= -.30982941E+05 F= -.33126297E+05 EK= 0.21434E+04 SP= 0.00E+00 SK= 0.00E+00
     1230 T=  2337. E= -.30982911E+05 F= -.33114075E+05 EK= 0.21312E+04 SP= 0.00E+00 SK= 0.00E+00
     1240 T=  2349. E= -.30982956E+05 F= -.33124897E+05 EK= 0.21419E+04 SP= 0.00E+00 SK= 0.00E+00
     1250 T=  2340. E= -.30982945E+05 F= -.33116895E+05 EK= 0.21340E+04 SP= 0.00E+00 SK= 0.00E+00
     1260 T=  2341. E= -.30982944E+05 F= -.33118191E+05 EK= 0.21352E+04 SP= 0.00E+00 SK= 0.00E+00
     1270 T=  2362. E= -.30982963E+05 F= -.33136533E+05 EK= 0.21536E+04 SP= 0.00E+00 SK= 0.00E+00
     1280 T=  2352. E= -.30982951E+05 F= -.33127484E+05 EK= 0.21445E+04 SP= 0.00E+00 SK= 0.00E+00
     1290 T=  2339. E= -.30982911E+05 F= -.33115507E+05 EK= 0.21326E+04 SP= 0.00E+00 SK= 0.00E+00
     1300 T=  2373. E= -.30982945E+05 F= -.33146856E+05 EK= 0.21639E+04 SP= 0.00E+00 SK= 0.00E+00
     1310 T=  2370. E= -.30982958E+05 F= -.33143791E+05 EK= 0.21608E+04 SP= 0.00E+00 SK= 0.00E+00
     1320 T=  2348. E= -.30982896E+05 F= -.33124171E+05 EK= 0.21413E+04 SP= 0.00E+00 SK= 0.00E+00
     1330 T=  2380. E= -.30983002E+05 F= -.33153321E+05 EK= 0.21703E+04 SP= 0.00E+00 SK= 0.00E+00
     1340 T=  2355. E= -.30982933E+05 F= -.33130754E+05 EK= 0.21478E+04 SP= 0.00E+00 SK= 0.00E+00
     1350 T=  2355. E= -.30982954E+05 F= -.33130664E+05 EK= 0.21477E+04 SP= 0.00E+00 SK= 0.00E+00
     1360 T=  2338. E= -.30982927E+05 F= -.33114818E+05 EK= 0.21319E+04 SP= 0.00E+00 SK= 0.00E+00
     1370 T=  2335. E= -.30982885E+05 F= -.33112250E+05 EK= 0.21294E+04 SP= 0.00E+00 SK= 0.00E+00
     1380 T=  2360. E= -.30982929E+05 F= -.33134964E+05 EK= 0.21520E+04 SP= 0.00E+00 SK= 0.00E+00
     1390 T=  2346. E= -.30982859E+05 F= -.33122655E+05 EK= 0.21398E+04 SP= 0.00E+00 SK= 0.00E+00
     1400 T=  2358. E= -.30982868E+05 F= -.33133623E+05 EK= 0.21508E+04 SP= 0.00E+00 SK= 0.00E+00
     1410 T=  2369. E= -.30982911E+05 F= -.33143610E+05 EK= 0.21607E+04 SP= 0.00E+00 SK= 0.00E+00
     1420 T=  2336. E= -.30982846E+05 F= -.33112762E+05 EK= 0.21299E+04 SP= 0.00E+00 SK= 0.00E+00
     1430 T=  2335. E= -.30982847E+05 F= -.33112446E+05 EK= 0.21296E+04 SP= 0.00E+00 SK= 0.00E+00
     1440 T=  2361. E= -.30982903E+05 F= -.33136276E+05 EK= 0.21534E+04 SP= 0.00E+00 SK= 0.00E+00
     1450 T=  2368. E= -.30982880E+05 F= -.33142742E+05 EK= 0.21599E+04 SP= 0.00E+00 SK= 0.00E+00
     1460 T=  2353. E= -.30982865E+05 F= -.33128226E+05 EK= 0.21454E+04 SP= 0.00E+00 SK= 0.00E+00
     1470 T=  2361. E= -.30982870E+05 F= -.33135505E+05 EK= 0.21526E+04 SP= 0.00E+00 SK= 0.00E+00
     1480 T=  2373. E= -.30982926E+05 F= -.33146618E+05 EK= 0.21637E+04 SP= 0.00E+00 SK= 0.00E+00
     1490 T=  2339. E= -.30982840E+05 F= -.33115482E+05 EK= 0.21326E+04 SP= 0.00E+00 SK= 0.00E+00
     1500 T=  2361. E= -.30982923E+05 F= -.33136247E+05 EK= 0.21533E+04 SP= 0.00E+00 SK= 0.00E+00
     1510 T=  2376. E= -.30982982E+05 F= -.33149646E+05 EK= 0.21667E+04 SP= 0.00E+00 SK= 0.00E+00
     1520 T=  2332. E= -.30982856E+05 F= -.33109816E+05 EK= 0.21270E+04 SP= 0.00E+00 SK= 0.00E+00
     1530 T=  2341. E= -.30982936E+05 F= -.33117329E+05 EK= 0.21344E+04 SP= 0.00E+00 SK= 0.00E+00
     1540 T=  2341. E= -.30982933E+05 F= -.33117804E+05 EK= 0.21349E+04 SP= 0.00E+00 SK= 0.00E+00
     1550 T=  2339. E= -.30982924E+05 F= -.33116320E+05 EK= 0.21334E+04 SP= 0.00E+00 SK= 0.00E+00
     1560 T=  2362. E= -.30982950E+05 F= -.33136601E+05 EK= 0.21537E+04 SP= 0.00E+00 SK= 0.00E+00
     1570 T=  2354. E= -.30982941E+05 F= -.33129636E+05 EK= 0.21467E+04 SP= 0.00E+00 SK= 0.00E+00
     1580 T=  2321. E= -.30982882E+05 F= -.33099545E+05 EK= 0.21167E+04 SP= 0.00E+00 SK= 0.00E+00
     1590 T=  2331. E= -.30982875E+05 F= -.33108744E+05 EK= 0.21259E+04 SP= 0.00E+00 SK= 0.00E+00
     1600 T=  2374. E= -.30982918E+05 F= -.33147578E+05 EK= 0.21647E+04 SP= 0.00E+00 SK= 0.00E+00
     1610 T=  2384. E= -.30982979E+05 F= -.33156698E+05 EK= 0.21737E+04 SP= 0.00E+00 SK= 0.00E+00
     1620 T=  2349. E= -.30982917E+05 F= -.33125064E+05 EK= 0.21421E+04 SP= 0.00E+00 SK= 0.00E+00
     1630 T=  2349. E= -.30982937E+05 F= -.33124860E+05 EK= 0.21419E+04 SP= 0.00E+00 SK= 0.00E+00
     1640 T=  2363. E= -.30982953E+05 F= -.33137800E+05 EK= 0.21548E+04 SP= 0.00E+00 SK= 0.00E+00
     1650 T=  2364. E= -.30982933E+05 F= -.33138873E+05 EK= 0.21559E+04 SP= 0.00E+00 SK= 0.00E+00
     1660 T=  2374. E= -.30982953E+05 F= -.33147659E+05 EK= 0.21647E+04 SP= 0.00E+00 SK= 0.00E+00
     1670 T=  2364. E= -.30982957E+05 F= -.33138457E+05 EK= 0.21555E+04 SP= 0.00E+00 SK= 0.00E+00
     1680 T=  2318. E= -.30982913E+05 F= -.33097005E+05 EK= 0.21141E+04 SP= 0.00E+00 SK= 0.00E+00
     1690 T=  2315. E= -.30982911E+05 F= -.33094490E+05 EK= 0.21116E+04 SP= 0.00E+00 SK= 0.00E+00
     1700 T=  2350. E= -.30982949E+05 F= -.33125944E+05 EK= 0.21430E+04 SP= 0.00E+00 SK= 0.00E+00
     1710 T=  2352. E= -.30982931E+05 F= -.33127606E+05 EK= 0.21447E+04 SP= 0.00E+00 SK= 0.00E+00
     1720 T=  2347. E= -.30982925E+05 F= -.33123389E+05 EK= 0.21405E+04 SP= 0.00E+00 SK= 0.00E+00
     1730 T=  2352. E= -.30982927E+05 F= -.33127478E+05 EK= 0.21446E+04 SP= 0.00E+00 SK= 0.00E+00
     1740 T=  2348. E= -.30982941E+05 F= -.33124501E+05 EK= 0.21416E+04 SP= 0.00E+00 SK= 0.00E+00
     1750 T=  2327. E= -.30982916E+05 F= -.33105193E+05 EK= 0.21223E+04 SP= 0.00E+00 SK= 0.00E+00
     1760 T=  2351. E= -.30982941E+05 F= -.33126580E+05 EK= 0.21436E+04 SP= 0.00E+00 SK= 0.00E+00
     1770 T=  2387. E= -.30982981E+05 F= -.33160010E+05 EK= 0.21770E+04 SP= 0.00E+00 SK= 0.00E+00
     1780 T=  2372. E= -.30982966E+05 F= -.33146080E+05 EK= 0.21631E+04 SP= 0.00E+00 SK= 0.00E+00
     1790 T=  2349. E= -.30982957E+05 F= -.33125016E+05 EK= 0.21421E+04 SP= 0.00E+00 SK= 0.00E+00
     1800 T=  2356. E= -.30982997E+05 F= -.33131138E+05 EK= 0.21481E+04 SP= 0.00E+00 SK= 0.00E+00
     1810 T=  2342. E= -.30982923E+05 F= -.33118751E+05 EK= 0.21358E+04 SP= 0.00E+00 SK= 0.00E+00
     1820 T=  2341. E= -.30982879E+05 F= -.33117532E+05 EK= 0.21347E+04 SP= 0.00E+00 SK= 0.00E+00
     1830 T=  2352. E= -.30982914E+05 F= -.33128163E+05 EK= 0.21452E+04 SP= 0.00E+00 SK= 0.00E+00
     1840 T=  2351. E= -.30982853E+05 F= -.33126567E+05 EK= 0.21437E+04 SP= 0.00E+00 SK= 0.00E+00
     1850 T=  2367. E= -.30982870E+05 F= -.33141352E+05 EK= 0.21585E+04 SP= 0.00E+00 SK= 0.00E+00
     1860 T=  2373. E= -.30982874E+05 F= -.33146885E+05 EK= 0.21640E+04 SP= 0.00E+00 SK= 0.00E+00
     1870 T=  2340. E= -.30982811E+05 F= -.33116588E+05 EK= 0.21338E+04 SP= 0.00E+00 SK= 0.00E+00
     1880 T=  2337. E= -.30982865E+05 F= -.33114052E+05 EK= 0.21312E+04 SP= 0.00E+00 SK= 0.00E+00
     1890 T=  2342. E= -.30982823E+05 F= -.33118619E+05 EK= 0.21358E+04 SP= 0.00E+00 SK= 0.00E+00
     1900 T=  2367. E= -.30982891E+05 F= -.33141121E+05 EK= 0.21582E+04 SP= 0.00E+00 SK= 0.00E+00
     1910 T=  2369. E= -.30982830E+05 F= -.33142964E+05 EK= 0.21601E+04 SP= 0.00E+00 SK= 0.00E+00
     1920 T=  2363. E= -.30982823E+05 F= -.33137943E+05 EK= 0.21551E+04 SP= 0.00E+00 SK= 0.00E+00
     1930 T=  2352. E= -.30982785E+05 F= -.33127345E+05 EK= 0.21446E+04 SP= 0.00E+00 SK= 0.00E+00
     1940 T=  2339. E= -.30982831E+05 F= -.33115453E+05 EK= 0.21326E+04 SP= 0.00E+00 SK= 0.00E+00
     1950 T=  2323. E= -.30982799E+05 F= -.33101656E+05 EK= 0.21189E+04 SP= 0.00E+00 SK= 0.00E+00
     1960 T=  2348. E= -.30982805E+05 F= -.33124306E+05 EK= 0.21415E+04 SP= 0.00E+00 SK= 0.00E+00
     1970 T=  2369. E= -.30982833E+05 F= -.33143049E+05 EK= 0.21602E+04 SP= 0.00E+00 SK= 0.00E+00
     1980 T=  2363. E= -.30982771E+05 F= -.33137659E+05 EK= 0.21549E+04 SP= 0.00E+00 SK= 0.00E+00
     1990 T=  2375. E= -.30982778E+05 F= -.33148632E+05 EK= 0.21659E+04 SP= 0.00E+00 SK= 0.00E+00
At line 1940 of file md.f90
Fortran runtime error: Unit number is negative and unit was not already opened with OPEN(NEWUNIT=...)

Error termination. Backtrace:
At line 1940 of file md.f90
Fortran runtime error: Unit number is negative and unit was not already opened with OPEN(NEWUNIT=...)

Error termination. Backtrace:
At line 1940 of file md.f90
Fortran runtime error: Unit number is negative and unit was not already opened with OPEN(NEWUNIT=...)

Error termination. Backtrace:
At line 1940 of file md.f90
Fortran runtime error: Unit number is negative and unit was not already opened with OPEN(NEWUNIT=...)

Error termination. Backtrace:
At line 1940 of file md.f90
Fortran runtime error: Unit number is negative and unit was not already opened with OPEN(NEWUNIT=...)

Error termination. Backtrace:
     2000 T=  2348. E= -.30982715E+05 F= -.33123862E+05 EK= 0.21411E+04 SP= 0.00E+00 SK= 0.00E+00
Rc and Rl:   5.500000  7.321000

Average number of steps between two list updates:  26.32
Average number of atoms in the shell:     0.01
#0  0x7f7e0100fd11 in ???
#1  0x7f7e01010859 in ???
#2  0x7f7e0101153f in ???
#3  0x561f05afa0bc in ???
#4  0x561f05af592e in ???
#5  0x7f7e00ca6082 in __libc_start_main
	at ../csu/libc-start.c:308
#6  0x561f05af596d in ???
#7  0xffffffffffffffff in ???
#0  0x7f8aac6cbd11 in ???
#1  0x7f8aac6cc859 in ???
#2  0x7f8aac6cd53f in ???
#3  0x55f4eb7590bc in ???
#4  0x55f4eb75492e in ???
#5  0x7f8aac362082 in __libc_start_main
	at ../csu/libc-start.c:308
#6  0x55f4eb75496d in ???
#7  0xffffffffffffffff in ???
#0  0x7facb9fa2d11 in ???
#1  0x7facb9fa3859 in ???
#2  0x7facb9fa453f in ???
#3  0x564841fc10bc in ???
#4  0x564841fbc92e in ???
#5  0x7facb9c39082 in __libc_start_main
	at ../csu/libc-start.c:308
#6  0x564841fbc96d in ???
#7  0xffffffffffffffff in ???
#0  0x7f24fc805d11 in ???
#1  0x7f24fc806859 in ???
#2  0x7f24fc80753f in ???
#3  0x564e50b460bc in ???
#4  0x564e50b4192e in ???
#5  0x7f24fc49c082 in __libc_start_main
	at ../csu/libc-start.c:308
#6  0x564e50b4196d in ???
#7  0xffffffffffffffff in ???
#0  0x7fb2dff5ad11 in ???
#1  0x7fb2dff5b859 in ???
#2  0x7fb2dff5c53f in ???
#3  0x5651c975e0bc in ???
#4  0x5651c975992e in ???
#5  0x7fb2dfbf1082 in __libc_start_main
	at ../csu/libc-start.c:308
#6  0x5651c975996d in ???
#7  0xffffffffffffffff in ???
