 running on    6 nodes
 distr:  one band on    1 nodes,    6 groups
 md.x 0.99
 POSCAR found :  1 types and     7056 ions
Rc and Rl:   5.500000  7.321000
 TIPO = eam     
 TIPO1 = uknown p
 Using EAM

 EAM parameters: 
 C  =   9.9634  EPS  = 0.2048  A  = 3.5678  M  = 3.127  N  =  6.366  R1 =   5.500000


 ----------------------------------------------------------------------------- 
|                                                                             |
|           W    W    AA    RRRRR   N    N  II  N    N   GGGG   !!!           |
|           W    W   A  A   R    R  NN   N  II  NN   N  G    G  !!!           |
|           W    W  A    A  R    R  N N  N  II  N N  N  G       !!!           |
|           W WW W  AAAAAA  RRRRR   N  N N  II  N  N N  G  GGG   !            |
|           WW  WW  A    A  R   R   N   NN  II  N   NN  G    G                |
|           W    W  A    A  R    R  N    N  II  N    N   GGGG   !!!           |
|                                                                             |
|      VASP found  21165 degrees of freedom                                   |
|      the temperature will equal 2*E(kin)/ (degrees of freedom)              |
|      this differs from previous releases, where T was 2*E(kin)/(3 NIONS).   |
|      The new definition is more consistent                                  |
|                                                                             |
 ----------------------------------------------------------------------------- 

 Random init:       15299       22870
 Random init:       15299       22870
 Random init:       15299       22870
 Random init:       15299       22870
 Random init:       15299       22870
 Random init:       15299       22870
 alloco spazio per displ
       10 T=  4563. E= -.26736466E+05 F= -.30897828E+05 EK= 0.41614E+04 SP= 0.00E+00 SK= 0.00E+00
       20 T=  4402. E= -.26736007E+05 F= -.30750759E+05 EK= 0.40148E+04 SP= 0.00E+00 SK= 0.00E+00
       30 T=  4426. E= -.26736243E+05 F= -.30772473E+05 EK= 0.40362E+04 SP= 0.00E+00 SK= 0.00E+00
       40 T=  4443. E= -.26736195E+05 F= -.30788326E+05 EK= 0.40521E+04 SP= 0.00E+00 SK= 0.00E+00
       50 T=  4420. E= -.26736203E+05 F= -.30766766E+05 EK= 0.40306E+04 SP= 0.00E+00 SK= 0.00E+00
       60 T=  4401. E= -.26736137E+05 F= -.30749109E+05 EK= 0.40130E+04 SP= 0.00E+00 SK= 0.00E+00
       70 T=  4406. E= -.26736141E+05 F= -.30754548E+05 EK= 0.40184E+04 SP= 0.00E+00 SK= 0.00E+00
       80 T=  4376. E= -.26736056E+05 F= -.30727034E+05 EK= 0.39910E+04 SP= 0.00E+00 SK= 0.00E+00
       90 T=  4417. E= -.26736170E+05 F= -.30763748E+05 EK= 0.40276E+04 SP= 0.00E+00 SK= 0.00E+00
      100 T=  4436. E= -.26736170E+05 F= -.30781756E+05 EK= 0.40456E+04 SP= 0.00E+00 SK= 0.00E+00
      110 T=  4413. E= -.26736070E+05 F= -.30760480E+05 EK= 0.40244E+04 SP= 0.00E+00 SK= 0.00E+00
      120 T=  4414. E= -.26736213E+05 F= -.30761318E+05 EK= 0.40251E+04 SP= 0.00E+00 SK= 0.00E+00
      130 T=  4371. E= -.26736080E+05 F= -.30722128E+05 EK= 0.39860E+04 SP= 0.00E+00 SK= 0.00E+00
      140 T=  4376. E= -.26736200E+05 F= -.30727231E+05 EK= 0.39910E+04 SP= 0.00E+00 SK= 0.00E+00
      150 T=  4356. E= -.26736208E+05 F= -.30708702E+05 EK= 0.39725E+04 SP= 0.00E+00 SK= 0.00E+00
      160 T=  4313. E= -.26736112E+05 F= -.30669222E+05 EK= 0.39331E+04 SP= 0.00E+00 SK= 0.00E+00
      170 T=  4355. E= -.26736224E+05 F= -.30707799E+05 EK= 0.39716E+04 SP= 0.00E+00 SK= 0.00E+00
      180 T=  4389. E= -.26736169E+05 F= -.30738551E+05 EK= 0.40024E+04 SP= 0.00E+00 SK= 0.00E+00
      190 T=  4356. E= -.26736115E+05 F= -.30708087E+05 EK= 0.39720E+04 SP= 0.00E+00 SK= 0.00E+00
      200 T=  4371. E= -.26736097E+05 F= -.30722357E+05 EK= 0.39863E+04 SP= 0.00E+00 SK= 0.00E+00
      210 T=  4397. E= -.26736209E+05 F= -.30745700E+05 EK= 0.40095E+04 SP= 0.00E+00 SK= 0.00E+00
      220 T=  4330. E= -.26736004E+05 F= -.30684323E+05 EK= 0.39483E+04 SP= 0.00E+00 SK= 0.00E+00
      230 T=  4346. E= -.26736029E+05 F= -.30698970E+05 EK= 0.39629E+04 SP= 0.00E+00 SK= 0.00E+00
      240 T=  4392. E= -.26736140E+05 F= -.30741026E+05 EK= 0.40049E+04 SP= 0.00E+00 SK= 0.00E+00
      250 T=  4359. E= -.26736039E+05 F= -.30711024E+05 EK= 0.39750E+04 SP= 0.00E+00 SK= 0.00E+00
      260 T=  4375. E= -.26736037E+05 F= -.30725618E+05 EK= 0.39896E+04 SP= 0.00E+00 SK= 0.00E+00
      270 T=  4363. E= -.26736020E+05 F= -.30715027E+05 EK= 0.39790E+04 SP= 0.00E+00 SK= 0.00E+00
      280 T=  4306. E= -.26735923E+05 F= -.30662964E+05 EK= 0.39270E+04 SP= 0.00E+00 SK= 0.00E+00
      290 T=  4363. E= -.26736057E+05 F= -.30715226E+05 EK= 0.39792E+04 SP= 0.00E+00 SK= 0.00E+00
      300 T=  4388. E= -.26736059E+05 F= -.30737599E+05 EK= 0.40015E+04 SP= 0.00E+00 SK= 0.00E+00
      310 T=  4381. E= -.26735978E+05 F= -.30731291E+05 EK= 0.39953E+04 SP= 0.00E+00 SK= 0.00E+00
      320 T=  4410. E= -.26736141E+05 F= -.30757773E+05 EK= 0.40216E+04 SP= 0.00E+00 SK= 0.00E+00
      330 T=  4369. E= -.26736037E+05 F= -.30720537E+05 EK= 0.39845E+04 SP= 0.00E+00 SK= 0.00E+00
      340 T=  4374. E= -.26736073E+05 F= -.30724872E+05 EK= 0.39888E+04 SP= 0.00E+00 SK= 0.00E+00
      350 T=  4367. E= -.26736077E+05 F= -.30718661E+05 EK= 0.39826E+04 SP= 0.00E+00 SK= 0.00E+00
      360 T=  4340. E= -.26736030E+05 F= -.30693970E+05 EK= 0.39579E+04 SP= 0.00E+00 SK= 0.00E+00
      370 T=  4344. E= -.26736013E+05 F= -.30697108E+05 EK= 0.39611E+04 SP= 0.00E+00 SK= 0.00E+00
      380 T=  4306. E= -.26736001E+05 F= -.30662623E+05 EK= 0.39266E+04 SP= 0.00E+00 SK= 0.00E+00
      390 T=  4339. E= -.26736122E+05 F= -.30693185E+05 EK= 0.39571E+04 SP= 0.00E+00 SK= 0.00E+00
      400 T=  4366. E= -.26736075E+05 F= -.30717498E+05 EK= 0.39814E+04 SP= 0.00E+00 SK= 0.00E+00
      410 T=  4353. E= -.26736031E+05 F= -.30705529E+05 EK= 0.39695E+04 SP= 0.00E+00 SK= 0.00E+00
      420 T=  4345. E= -.26736177E+05 F= -.30698497E+05 EK= 0.39623E+04 SP= 0.00E+00 SK= 0.00E+00
      430 T=  4308. E= -.26736070E+05 F= -.30664587E+05 EK= 0.39285E+04 SP= 0.00E+00 SK= 0.00E+00
      440 T=  4303. E= -.26736163E+05 F= -.30660362E+05 EK= 0.39242E+04 SP= 0.00E+00 SK= 0.00E+00
      450 T=  4252. E= -.26736056E+05 F= -.30613176E+05 EK= 0.38771E+04 SP= 0.00E+00 SK= 0.00E+00
      460 T=  4277. E= -.26736082E+05 F= -.30636740E+05 EK= 0.39007E+04 SP= 0.00E+00 SK= 0.00E+00
      470 T=  4289. E= -.26736073E+05 F= -.30647412E+05 EK= 0.39113E+04 SP= 0.00E+00 SK= 0.00E+00
      480 T=  4272. E= -.26736053E+05 F= -.30631707E+05 EK= 0.38957E+04 SP= 0.00E+00 SK= 0.00E+00
      490 T=  4238. E= -.26735948E+05 F= -.30600607E+05 EK= 0.38647E+04 SP= 0.00E+00 SK= 0.00E+00
      500 T=  4256. E= -.26735956E+05 F= -.30616963E+05 EK= 0.38810E+04 SP= 0.00E+00 SK= 0.00E+00
      510 T=  4302. E= -.26736086E+05 F= -.30659387E+05 EK= 0.39233E+04 SP= 0.00E+00 SK= 0.00E+00
      520 T=  4284. E= -.26736020E+05 F= -.30642566E+05 EK= 0.39065E+04 SP= 0.00E+00 SK= 0.00E+00
      530 T=  4272. E= -.26736053E+05 F= -.30631432E+05 EK= 0.38954E+04 SP= 0.00E+00 SK= 0.00E+00
      540 T=  4275. E= -.26736096E+05 F= -.30634168E+05 EK= 0.38981E+04 SP= 0.00E+00 SK= 0.00E+00
      550 T=  4275. E= -.26736001E+05 F= -.30634369E+05 EK= 0.38984E+04 SP= 0.00E+00 SK= 0.00E+00
      560 T=  4275. E= -.26736088E+05 F= -.30635002E+05 EK= 0.38989E+04 SP= 0.00E+00 SK= 0.00E+00
      570 T=  4208. E= -.26735903E+05 F= -.30573555E+05 EK= 0.38377E+04 SP= 0.00E+00 SK= 0.00E+00
      580 T=  4234. E= -.26736082E+05 F= -.30597189E+05 EK= 0.38611E+04 SP= 0.00E+00 SK= 0.00E+00
      590 T=  4203. E= -.26735892E+05 F= -.30568766E+05 EK= 0.38329E+04 SP= 0.00E+00 SK= 0.00E+00
      600 T=  4268. E= -.26736033E+05 F= -.30628505E+05 EK= 0.38925E+04 SP= 0.00E+00 SK= 0.00E+00
      610 T=  4291. E= -.26735977E+05 F= -.30648664E+05 EK= 0.39127E+04 SP= 0.00E+00 SK= 0.00E+00
      620 T=  4212. E= -.26735849E+05 F= -.30576845E+05 EK= 0.38410E+04 SP= 0.00E+00 SK= 0.00E+00
      630 T=  4204. E= -.26735764E+05 F= -.30569553E+05 EK= 0.38338E+04 SP= 0.00E+00 SK= 0.00E+00
      640 T=  4250. E= -.26735941E+05 F= -.30611886E+05 EK= 0.38759E+04 SP= 0.00E+00 SK= 0.00E+00
      650 T=  4214. E= -.26735848E+05 F= -.30579047E+05 EK= 0.38432E+04 SP= 0.00E+00 SK= 0.00E+00
      660 T=  4206. E= -.26735804E+05 F= -.30571339E+05 EK= 0.38355E+04 SP= 0.00E+00 SK= 0.00E+00
      670 T=  4256. E= -.26735885E+05 F= -.30616853E+05 EK= 0.38810E+04 SP= 0.00E+00 SK= 0.00E+00
      680 T=  4280. E= -.26735984E+05 F= -.30638728E+05 EK= 0.39027E+04 SP= 0.00E+00 SK= 0.00E+00
      690 T=  4209. E= -.26735815E+05 F= -.30574016E+05 EK= 0.38382E+04 SP= 0.00E+00 SK= 0.00E+00
      700 T=  4208. E= -.26735893E+05 F= -.30573145E+05 EK= 0.38373E+04 SP= 0.00E+00 SK= 0.00E+00
      710 T=  4213. E= -.26735825E+05 F= -.30578099E+05 EK= 0.38423E+04 SP= 0.00E+00 SK= 0.00E+00
      720 T=  4212. E= -.26735831E+05 F= -.30577214E+05 EK= 0.38414E+04 SP= 0.00E+00 SK= 0.00E+00
      730 T=  4231. E= -.26735758E+05 F= -.30593898E+05 EK= 0.38581E+04 SP= 0.00E+00 SK= 0.00E+00
      740 T=  4299. E= -.26735927E+05 F= -.30656158E+05 EK= 0.39202E+04 SP= 0.00E+00 SK= 0.00E+00
      750 T=  4227. E= -.26735804E+05 F= -.30590889E+05 EK= 0.38551E+04 SP= 0.00E+00 SK= 0.00E+00
      760 T=  4213. E= -.26735806E+05 F= -.30577551E+05 EK= 0.38417E+04 SP= 0.00E+00 SK= 0.00E+00
      770 T=  4216. E= -.26735975E+05 F= -.30580616E+05 EK= 0.38446E+04 SP= 0.00E+00 SK= 0.00E+00
      780 T=  4133. E= -.26735844E+05 F= -.30504597E+05 EK= 0.37688E+04 SP= 0.00E+00 SK= 0.00E+00
      790 T=  4191. E= -.26735931E+05 F= -.30558289E+05 EK= 0.38224E+04 SP= 0.00E+00 SK= 0.00E+00
      800 T=  4229. E= -.26735972E+05 F= -.30592849E+05 EK= 0.38569E+04 SP= 0.00E+00 SK= 0.00E+00
      810 T=  4187. E= -.26735882E+05 F= -.30554088E+05 EK= 0.38182E+04 SP= 0.00E+00 SK= 0.00E+00
      820 T=  4168. E= -.26735825E+05 F= -.30536685E+05 EK= 0.38009E+04 SP= 0.00E+00 SK= 0.00E+00
      830 T=  4219. E= -.26735884E+05 F= -.30583249E+05 EK= 0.38474E+04 SP= 0.00E+00 SK= 0.00E+00
      840 T=  4203. E= -.26735862E+05 F= -.30568298E+05 EK= 0.38324E+04 SP= 0.00E+00 SK= 0.00E+00
      850 T=  4194. E= -.26735889E+05 F= -.30560845E+05 EK= 0.38250E+04 SP= 0.00E+00 SK= 0.00E+00
      860 T=  4195. E= -.26735906E+05 F= -.30561664E+05 EK= 0.38258E+04 SP= 0.00E+00 SK= 0.00E+00
      870 T=  4182. E= -.26735901E+05 F= -.30550028E+05 EK= 0.38141E+04 SP= 0.00E+00 SK= 0.00E+00
      880 T=  4196. E= -.26735924E+05 F= -.30562072E+05 EK= 0.38261E+04 SP= 0.00E+00 SK= 0.00E+00
      890 T=  4157. E= -.26735812E+05 F= -.30526983E+05 EK= 0.37912E+04 SP= 0.00E+00 SK= 0.00E+00
      900 T=  4209. E= -.26736010E+05 F= -.30574329E+05 EK= 0.38383E+04 SP= 0.00E+00 SK= 0.00E+00
      910 T=  4178. E= -.26735876E+05 F= -.30546115E+05 EK= 0.38102E+04 SP= 0.00E+00 SK= 0.00E+00
      920 T=  4128. E= -.26735911E+05 F= -.30500164E+05 EK= 0.37643E+04 SP= 0.00E+00 SK= 0.00E+00
      930 T=  4130. E= -.26735912E+05 F= -.30501936E+05 EK= 0.37660E+04 SP= 0.00E+00 SK= 0.00E+00
      940 T=  4162. E= -.26735956E+05 F= -.30531143E+05 EK= 0.37952E+04 SP= 0.00E+00 SK= 0.00E+00
      950 T=  4165. E= -.26735932E+05 F= -.30534253E+05 EK= 0.37983E+04 SP= 0.00E+00 SK= 0.00E+00
      960 T=  4148. E= -.26735940E+05 F= -.30518410E+05 EK= 0.37825E+04 SP= 0.00E+00 SK= 0.00E+00
      970 T=  4128. E= -.26735939E+05 F= -.30500449E+05 EK= 0.37645E+04 SP= 0.00E+00 SK= 0.00E+00
      980 T=  4151. E= -.26735927E+05 F= -.30521233E+05 EK= 0.37853E+04 SP= 0.00E+00 SK= 0.00E+00
      990 T=  4176. E= -.26735976E+05 F= -.30544650E+05 EK= 0.38087E+04 SP= 0.00E+00 SK= 0.00E+00
     1000 T=  4161. E= -.26736028E+05 F= -.30530696E+05 EK= 0.37947E+04 SP= 0.00E+00 SK= 0.00E+00
     1010 T=  4120. E= -.26735934E+05 F= -.30492655E+05 EK= 0.37567E+04 SP= 0.00E+00 SK= 0.00E+00
     1020 T=  4099. E= -.26735945E+05 F= -.30474253E+05 EK= 0.37383E+04 SP= 0.00E+00 SK= 0.00E+00
     1030 T=  4122. E= -.26736028E+05 F= -.30494810E+05 EK= 0.37588E+04 SP= 0.00E+00 SK= 0.00E+00
     1040 T=  4124. E= -.26735914E+05 F= -.30497099E+05 EK= 0.37612E+04 SP= 0.00E+00 SK= 0.00E+00
     1050 T=  4138. E= -.26735966E+05 F= -.30509973E+05 EK= 0.37740E+04 SP= 0.00E+00 SK= 0.00E+00
     1060 T=  4117. E= -.26735979E+05 F= -.30490094E+05 EK= 0.37541E+04 SP= 0.00E+00 SK= 0.00E+00
     1070 T=  4064. E= -.26735856E+05 F= -.30442262E+05 EK= 0.37064E+04 SP= 0.00E+00 SK= 0.00E+00
     1080 T=  4105. E= -.26735955E+05 F= -.30479375E+05 EK= 0.37434E+04 SP= 0.00E+00 SK= 0.00E+00
     1090 T=  4112. E= -.26735814E+05 F= -.30485611E+05 EK= 0.37498E+04 SP= 0.00E+00 SK= 0.00E+00
     1100 T=  4129. E= -.26735962E+05 F= -.30501089E+05 EK= 0.37651E+04 SP= 0.00E+00 SK= 0.00E+00
     1110 T=  4102. E= -.26735824E+05 F= -.30476943E+05 EK= 0.37411E+04 SP= 0.00E+00 SK= 0.00E+00
     1120 T=  4092. E= -.26735853E+05 F= -.30467241E+05 EK= 0.37314E+04 SP= 0.00E+00 SK= 0.00E+00
     1130 T=  4060. E= -.26735818E+05 F= -.30438217E+05 EK= 0.37024E+04 SP= 0.00E+00 SK= 0.00E+00
     1140 T=  4049. E= -.26735820E+05 F= -.30428560E+05 EK= 0.36927E+04 SP= 0.00E+00 SK= 0.00E+00
     1150 T=  4041. E= -.26735846E+05 F= -.30421290E+05 EK= 0.36854E+04 SP= 0.00E+00 SK= 0.00E+00
     1160 T=  4016. E= -.26735752E+05 F= -.30397793E+05 EK= 0.36620E+04 SP= 0.00E+00 SK= 0.00E+00
     1170 T=  4039. E= -.26735759E+05 F= -.30418683E+05 EK= 0.36829E+04 SP= 0.00E+00 SK= 0.00E+00
     1180 T=  4070. E= -.26735885E+05 F= -.30447632E+05 EK= 0.37117E+04 SP= 0.00E+00 SK= 0.00E+00
     1190 T=  4054. E= -.26735775E+05 F= -.30432954E+05 EK= 0.36972E+04 SP= 0.00E+00 SK= 0.00E+00
     1200 T=  4066. E= -.26735859E+05 F= -.30443562E+05 EK= 0.37077E+04 SP= 0.00E+00 SK= 0.00E+00
     1210 T=  4013. E= -.26735728E+05 F= -.30395336E+05 EK= 0.36596E+04 SP= 0.00E+00 SK= 0.00E+00
     1220 T=  4057. E= -.26735775E+05 F= -.30435692E+05 EK= 0.36999E+04 SP= 0.00E+00 SK= 0.00E+00
     1230 T=  4065. E= -.26735764E+05 F= -.30442823E+05 EK= 0.37071E+04 SP= 0.00E+00 SK= 0.00E+00
     1240 T=  4036. E= -.26735691E+05 F= -.30416348E+05 EK= 0.36807E+04 SP= 0.00E+00 SK= 0.00E+00
     1250 T=  4071. E= -.26735827E+05 F= -.30447976E+05 EK= 0.37121E+04 SP= 0.00E+00 SK= 0.00E+00
     1260 T=  4062. E= -.26735716E+05 F= -.30440094E+05 EK= 0.37044E+04 SP= 0.00E+00 SK= 0.00E+00
     1270 T=  4042. E= -.26735727E+05 F= -.30421747E+05 EK= 0.36860E+04 SP= 0.00E+00 SK= 0.00E+00
     1280 T=  4062. E= -.26735744E+05 F= -.30439995E+05 EK= 0.37043E+04 SP= 0.00E+00 SK= 0.00E+00
     1290 T=  4073. E= -.26735757E+05 F= -.30449878E+05 EK= 0.37141E+04 SP= 0.00E+00 SK= 0.00E+00
     1300 T=  4025. E= -.26735619E+05 F= -.30405761E+05 EK= 0.36701E+04 SP= 0.00E+00 SK= 0.00E+00
     1310 T=  4024. E= -.26735650E+05 F= -.30405718E+05 EK= 0.36701E+04 SP= 0.00E+00 SK= 0.00E+00
     1320 T=  4035. E= -.26735737E+05 F= -.30415733E+05 EK= 0.36800E+04 SP= 0.00E+00 SK= 0.00E+00
     1330 T=  4037. E= -.26735692E+05 F= -.30416960E+05 EK= 0.36813E+04 SP= 0.00E+00 SK= 0.00E+00
     1340 T=  4021. E= -.26735745E+05 F= -.30402332E+05 EK= 0.36666E+04 SP= 0.00E+00 SK= 0.00E+00
     1350 T=  3993. E= -.26735651E+05 F= -.30376732E+05 EK= 0.36411E+04 SP= 0.00E+00 SK= 0.00E+00
     1360 T=  4030. E= -.26735767E+05 F= -.30411175E+05 EK= 0.36754E+04 SP= 0.00E+00 SK= 0.00E+00
     1370 T=  4006. E= -.26735717E+05 F= -.30389075E+05 EK= 0.36534E+04 SP= 0.00E+00 SK= 0.00E+00
     1380 T=  3997. E= -.26735642E+05 F= -.30380752E+05 EK= 0.36451E+04 SP= 0.00E+00 SK= 0.00E+00
     1390 T=  4036. E= -.26735746E+05 F= -.30415931E+05 EK= 0.36802E+04 SP= 0.00E+00 SK= 0.00E+00
     1400 T=  3984. E= -.26735616E+05 F= -.30368566E+05 EK= 0.36330E+04 SP= 0.00E+00 SK= 0.00E+00
     1410 T=  3963. E= -.26735585E+05 F= -.30349404E+05 EK= 0.36138E+04 SP= 0.00E+00 SK= 0.00E+00
     1420 T=  3977. E= -.26735608E+05 F= -.30362791E+05 EK= 0.36272E+04 SP= 0.00E+00 SK= 0.00E+00
     1430 T=  3963. E= -.26735587E+05 F= -.30349336E+05 EK= 0.36137E+04 SP= 0.00E+00 SK= 0.00E+00
     1440 T=  3975. E= -.26735531E+05 F= -.30360818E+05 EK= 0.36253E+04 SP= 0.00E+00 SK= 0.00E+00
     1450 T=  4026. E= -.26735546E+05 F= -.30406902E+05 EK= 0.36714E+04 SP= 0.00E+00 SK= 0.00E+00
     1460 T=  4055. E= -.26735470E+05 F= -.30432961E+05 EK= 0.36975E+04 SP= 0.00E+00 SK= 0.00E+00
     1470 T=  4049. E= -.26735462E+05 F= -.30427530E+05 EK= 0.36921E+04 SP= 0.00E+00 SK= 0.00E+00
     1480 T=  3997. E= -.26735399E+05 F= -.30380403E+05 EK= 0.36450E+04 SP= 0.00E+00 SK= 0.00E+00
     1490 T=  3981. E= -.26735381E+05 F= -.30365571E+05 EK= 0.36302E+04 SP= 0.00E+00 SK= 0.00E+00
     1500 T=  4015. E= -.26735518E+05 F= -.30396546E+05 EK= 0.36610E+04 SP= 0.00E+00 SK= 0.00E+00
     1510 T=  3970. E= -.26735398E+05 F= -.30355948E+05 EK= 0.36206E+04 SP= 0.00E+00 SK= 0.00E+00
     1520 T=  4013. E= -.26735501E+05 F= -.30395410E+05 EK= 0.36599E+04 SP= 0.00E+00 SK= 0.00E+00
     1530 T=  4011. E= -.26735426E+05 F= -.30392769E+05 EK= 0.36573E+04 SP= 0.00E+00 SK= 0.00E+00
     1540 T=  3980. E= -.26735423E+05 F= -.30365274E+05 EK= 0.36299E+04 SP= 0.00E+00 SK= 0.00E+00
     1550 T=  3975. E= -.26735483E+05 F= -.30360066E+05 EK= 0.36246E+04 SP= 0.00E+00 SK= 0.00E+00
     1560 T=  3979. E= -.26735505E+05 F= -.30364109E+05 EK= 0.36286E+04 SP= 0.00E+00 SK= 0.00E+00
     1570 T=  3967. E= -.26735492E+05 F= -.30352845E+05 EK= 0.36174E+04 SP= 0.00E+00 SK= 0.00E+00
     1580 T=  3960. E= -.26735537E+05 F= -.30346692E+05 EK= 0.36112E+04 SP= 0.00E+00 SK= 0.00E+00
     1590 T=  3975. E= -.26735422E+05 F= -.30360176E+05 EK= 0.36248E+04 SP= 0.00E+00 SK= 0.00E+00
     1600 T=  4017. E= -.26735553E+05 F= -.30399168E+05 EK= 0.36636E+04 SP= 0.00E+00 SK= 0.00E+00
     1610 T=  3962. E= -.26735385E+05 F= -.30348173E+05 EK= 0.36128E+04 SP= 0.00E+00 SK= 0.00E+00
     1620 T=  3997. E= -.26735553E+05 F= -.30380436E+05 EK= 0.36449E+04 SP= 0.00E+00 SK= 0.00E+00
     1630 T=  3990. E= -.26735459E+05 F= -.30374166E+05 EK= 0.36387E+04 SP= 0.00E+00 SK= 0.00E+00
     1640 T=  3979. E= -.26735453E+05 F= -.30363751E+05 EK= 0.36283E+04 SP= 0.00E+00 SK= 0.00E+00
     1650 T=  3971. E= -.26735527E+05 F= -.30356463E+05 EK= 0.36209E+04 SP= 0.00E+00 SK= 0.00E+00
     1660 T=  3919. E= -.26735385E+05 F= -.30308886E+05 EK= 0.35735E+04 SP= 0.00E+00 SK= 0.00E+00
     1670 T=  3977. E= -.26735532E+05 F= -.30362587E+05 EK= 0.36271E+04 SP= 0.00E+00 SK= 0.00E+00
     1680 T=  3992. E= -.26735505E+05 F= -.30375523E+05 EK= 0.36400E+04 SP= 0.00E+00 SK= 0.00E+00
     1690 T=  3984. E= -.26735450E+05 F= -.30368564E+05 EK= 0.36331E+04 SP= 0.00E+00 SK= 0.00E+00
     1700 T=  3969. E= -.26735499E+05 F= -.30354573E+05 EK= 0.36191E+04 SP= 0.00E+00 SK= 0.00E+00
     1710 T=  3948. E= -.26735413E+05 F= -.30335764E+05 EK= 0.36004E+04 SP= 0.00E+00 SK= 0.00E+00
     1720 T=  3953. E= -.26735415E+05 F= -.30339949E+05 EK= 0.36045E+04 SP= 0.00E+00 SK= 0.00E+00
     1730 T=  3932. E= -.26735451E+05 F= -.30320833E+05 EK= 0.35854E+04 SP= 0.00E+00 SK= 0.00E+00
     1740 T=  3922. E= -.26735392E+05 F= -.30312325E+05 EK= 0.35769E+04 SP= 0.00E+00 SK= 0.00E+00
     1750 T=  3923. E= -.26735416E+05 F= -.30313313E+05 EK= 0.35779E+04 SP= 0.00E+00 SK= 0.00E+00
     1760 T=  3909. E= -.26735305E+05 F= -.30300011E+05 EK= 0.35647E+04 SP= 0.00E+00 SK= 0.00E+00
     1770 T=  4002. E= -.26735484E+05 F= -.30385327E+05 EK= 0.36498E+04 SP= 0.00E+00 SK= 0.00E+00
     1780 T=  3956. E= -.26735289E+05 F= -.30342997E+05 EK= 0.36077E+04 SP= 0.00E+00 SK= 0.00E+00
     1790 T=  3953. E= -.26735259E+05 F= -.30340407E+05 EK= 0.36051E+04 SP= 0.00E+00 SK= 0.00E+00
     1800 T=  3969. E= -.26735423E+05 F= -.30354785E+05 EK= 0.36194E+04 SP= 0.00E+00 SK= 0.00E+00
     1810 T=  3890. E= -.26735225E+05 F= -.30282267E+05 EK= 0.35470E+04 SP= 0.00E+00 SK= 0.00E+00
     1820 T=  3916. E= -.26735303E+05 F= -.30306125E+05 EK= 0.35708E+04 SP= 0.00E+00 SK= 0.00E+00
     1830 T=  3932. E= -.26735343E+05 F= -.30320722E+05 EK= 0.35854E+04 SP= 0.00E+00 SK= 0.00E+00
     1840 T=  3911. E= -.26735287E+05 F= -.30301796E+05 EK= 0.35665E+04 SP= 0.00E+00 SK= 0.00E+00
     1850 T=  3906. E= -.26735175E+05 F= -.30296900E+05 EK= 0.35617E+04 SP= 0.00E+00 SK= 0.00E+00
     1860 T=  3956. E= -.26735349E+05 F= -.30343376E+05 EK= 0.36080E+04 SP= 0.00E+00 SK= 0.00E+00
     1870 T=  3886. E= -.26735150E+05 F= -.30278580E+05 EK= 0.35434E+04 SP= 0.00E+00 SK= 0.00E+00
     1880 T=  3940. E= -.26735374E+05 F= -.30328448E+05 EK= 0.35931E+04 SP= 0.00E+00 SK= 0.00E+00
     1890 T=  3940. E= -.26735297E+05 F= -.30328051E+05 EK= 0.35928E+04 SP= 0.00E+00 SK= 0.00E+00
     1900 T=  3908. E= -.26735257E+05 F= -.30298878E+05 EK= 0.35636E+04 SP= 0.00E+00 SK= 0.00E+00
     1910 T=  3929. E= -.26735355E+05 F= -.30318236E+05 EK= 0.35829E+04 SP= 0.00E+00 SK= 0.00E+00
     1920 T=  3950. E= -.26735347E+05 F= -.30337901E+05 EK= 0.36026E+04 SP= 0.00E+00 SK= 0.00E+00
     1930 T=  3937. E= -.26735359E+05 F= -.30325345E+05 EK= 0.35900E+04 SP= 0.00E+00 SK= 0.00E+00
     1940 T=  3892. E= -.26735271E+05 F= -.30284579E+05 EK= 0.35493E+04 SP= 0.00E+00 SK= 0.00E+00
     1950 T=  3878. E= -.26735322E+05 F= -.30271402E+05 EK= 0.35361E+04 SP= 0.00E+00 SK= 0.00E+00
     1960 T=  3873. E= -.26735322E+05 F= -.30267389E+05 EK= 0.35321E+04 SP= 0.00E+00 SK= 0.00E+00
     1970 T=  3915. E= -.26735346E+05 F= -.30305431E+05 EK= 0.35701E+04 SP= 0.00E+00 SK= 0.00E+00
     1980 T=  3937. E= -.26735420E+05 F= -.30325551E+05 EK= 0.35901E+04 SP= 0.00E+00 SK= 0.00E+00
     1990 T=  3897. E= -.26735389E+05 F= -.30288851E+05 EK= 0.35535E+04 SP= 0.00E+00 SK= 0.00E+00
At line 1940 of file md.f90
Fortran runtime error: Unit number is negative and unit was not already opened with OPEN(NEWUNIT=...)

Error termination. Backtrace:
At line 1940 of file md.f90
Fortran runtime error: Unit number is negative and unit was not already opened with OPEN(NEWUNIT=...)

Error termination. Backtrace:
At line 1940 of file md.f90
Fortran runtime error: Unit number is negative and unit was not already opened with OPEN(NEWUNIT=...)

Error termination. Backtrace:
At line 1940 of file md.f90
Fortran runtime error: Unit number is negative and unit was not already opened with OPEN(NEWUNIT=...)

Error termination. Backtrace:
At line 1940 of file md.f90
Fortran runtime error: Unit number is negative and unit was not already opened with OPEN(NEWUNIT=...)

Error termination. Backtrace:
     2000 T=  3865. E= -.26735338E+05 F= -.30259961E+05 EK= 0.35246E+04 SP= 0.00E+00 SK= 0.00E+00
Rc and Rl:   5.500000  7.321000

Average number of steps between two list updates:  18.87
Average number of atoms in the shell:     0.01
#0  0x7fc33b9fdd11 in ???
#1  0x7fc33b9fe859 in ???
#2  0x7fc33b9ff53f in ???
#3  0x55e952c650bc in ???
#4  0x55e952c6092e in ???
#5  0x7fc33b694082 in __libc_start_main
	at ../csu/libc-start.c:308
#6  0x55e952c6096d in ???
#7  0xffffffffffffffff in ???
#0  0x7f0035884d11 in ???
#1  0x7f0035885859 in ???
#2  0x7f003588653f in ???
#3  0x55bb1ff2a0bc in ???
#4  0x55bb1ff2592e in ???
#5  0x7f003551b082 in __libc_start_main
	at ../csu/libc-start.c:308
#6  0x55bb1ff2596d in ???
#7  0xffffffffffffffff in ???
#0  0x7f996221fd11 in ???
#1  0x7f9962220859 in ???
#2  0x7f996222153f in ???
#3  0x55c6ed1500bc in ???
#4  0x55c6ed14b92e in ???
#5  0x7f9961eb6082 in __libc_start_main
	at ../csu/libc-start.c:308
#6  0x55c6ed14b96d in ???
#7  0xffffffffffffffff in ???
#0  0x7fd03cb8bd11 in ???
#1  0x7fd03cb8c859 in ???
#2  0x7fd03cb8d53f in ???
#3  0x564e859170bc in ???
#4  0x564e8591292e in ???
#5  0x7fd03c822082 in __libc_start_main
	at ../csu/libc-start.c:308
#6  0x564e8591296d in ???
#7  0xffffffffffffffff in ???
