 running on    6 nodes
 distr:  one band on    1 nodes,    6 groups
 md.x 0.99
 POSCAR found :  1 types and     7056 ions
Rc and Rl:   5.500000  7.321000
 TIPO = eam     
 TIPO1 = uknown p
 Using EAM

 EAM parameters: 
 C  =   9.9634  EPS  = 0.2048  A  = 3.5678  M  = 3.127  N  =  6.366  R1 =   5.500000


 ----------------------------------------------------------------------------- 
|                                                                             |
|           W    W    AA    RRRRR   N    N  II  N    N   GGGG   !!!           |
|           W    W   A  A   R    R  NN   N  II  NN   N  G    G  !!!           |
|           W    W  A    A  R    R  N N  N  II  N N  N  G       !!!           |
|           W WW W  AAAAAA  RRRRR   N  N N  II  N  N N  G  GGG   !            |
|           WW  WW  A    A  R   R   N   NN  II  N   NN  G    G                |
|           W    W  A    A  R    R  N    N  II  N    N   GGGG   !!!           |
|                                                                             |
|      VASP found  21165 degrees of freedom                                   |
|      the temperature will equal 2*E(kin)/ (degrees of freedom)              |
|      this differs from previous releases, where T was 2*E(kin)/(3 NIONS).   |
|      The new definition is more consistent                                  |
|                                                                             |
 ----------------------------------------------------------------------------- 

 Random init:        9673       17244
 Random init:        9673       17244
 Random init:        9673       17244
 alloco spazio per displ
 Random init:        9673       17244
 Random init:        9673       17244
 Random init:        9673       17244
       10 T=  2410. E= -.32079661E+05 F= -.34277257E+05 EK= 0.21976E+04 SP= 0.00E+00 SK= 0.00E+00
       20 T=   993. E= -.32077802E+05 F= -.32983567E+05 EK= 0.90576E+03 SP= 0.00E+00 SK= 0.00E+00
       30 T=  1462. E= -.32079784E+05 F= -.33412589E+05 EK= 0.13328E+04 SP= 0.00E+00 SK= 0.00E+00
Randomizing velocities, T =  3439.
       40 T=  3092. E= -.30387491E+05 F= -.33207606E+05 EK= 0.28201E+04 SP= 0.00E+00 SK= 0.00E+00
       50 T=  2296. E= -.30385983E+05 F= -.32479734E+05 EK= 0.20938E+04 SP= 0.00E+00 SK= 0.00E+00
       60 T=  2762. E= -.30387546E+05 F= -.32906368E+05 EK= 0.25188E+04 SP= 0.00E+00 SK= 0.00E+00
       70 T=  2745. E= -.30387251E+05 F= -.32890277E+05 EK= 0.25030E+04 SP= 0.00E+00 SK= 0.00E+00
       80 T=  2440. E= -.30386770E+05 F= -.32611670E+05 EK= 0.22249E+04 SP= 0.00E+00 SK= 0.00E+00
       90 T=  2606. E= -.30387248E+05 F= -.32764105E+05 EK= 0.23769E+04 SP= 0.00E+00 SK= 0.00E+00
      100 T=  2675. E= -.30387238E+05 F= -.32827033E+05 EK= 0.24398E+04 SP= 0.00E+00 SK= 0.00E+00
      110 T=  2578. E= -.30387018E+05 F= -.32738326E+05 EK= 0.23513E+04 SP= 0.00E+00 SK= 0.00E+00
      120 T=  2657. E= -.30387160E+05 F= -.32809988E+05 EK= 0.24228E+04 SP= 0.00E+00 SK= 0.00E+00
      130 T=  2707. E= -.30387228E+05 F= -.32856260E+05 EK= 0.24690E+04 SP= 0.00E+00 SK= 0.00E+00
      140 T=  2648. E= -.30387033E+05 F= -.32801756E+05 EK= 0.24147E+04 SP= 0.00E+00 SK= 0.00E+00
      150 T=  2690. E= -.30387154E+05 F= -.32840286E+05 EK= 0.24531E+04 SP= 0.00E+00 SK= 0.00E+00
      160 T=  2686. E= -.30387088E+05 F= -.32836727E+05 EK= 0.24496E+04 SP= 0.00E+00 SK= 0.00E+00
      170 T=  2662. E= -.30387058E+05 F= -.32814774E+05 EK= 0.24277E+04 SP= 0.00E+00 SK= 0.00E+00
Randomizing velocities, T =  3439.
      180 T=  3273. E= -.29673050E+05 F= -.32658139E+05 EK= 0.29851E+04 SP= 0.00E+00 SK= 0.00E+00
      190 T=  3006. E= -.29672824E+05 F= -.32414050E+05 EK= 0.27412E+04 SP= 0.00E+00 SK= 0.00E+00
      200 T=  3033. E= -.29673085E+05 F= -.32439051E+05 EK= 0.27660E+04 SP= 0.00E+00 SK= 0.00E+00
      210 T=  3003. E= -.29673008E+05 F= -.32411539E+05 EK= 0.27385E+04 SP= 0.00E+00 SK= 0.00E+00
      220 T=  2984. E= -.29673018E+05 F= -.32394363E+05 EK= 0.27213E+04 SP= 0.00E+00 SK= 0.00E+00
      230 T=  3022. E= -.29673152E+05 F= -.32429456E+05 EK= 0.27563E+04 SP= 0.00E+00 SK= 0.00E+00
      240 T=  3015. E= -.29673143E+05 F= -.32422437E+05 EK= 0.27493E+04 SP= 0.00E+00 SK= 0.00E+00
      250 T=  3002. E= -.29673064E+05 F= -.32410953E+05 EK= 0.27379E+04 SP= 0.00E+00 SK= 0.00E+00
      260 T=  3063. E= -.29673135E+05 F= -.32466281E+05 EK= 0.27931E+04 SP= 0.00E+00 SK= 0.00E+00
      270 T=  3062. E= -.29673072E+05 F= -.32465133E+05 EK= 0.27921E+04 SP= 0.00E+00 SK= 0.00E+00
      280 T=  3031. E= -.29673034E+05 F= -.32436844E+05 EK= 0.27638E+04 SP= 0.00E+00 SK= 0.00E+00
      290 T=  3016. E= -.29672943E+05 F= -.32423223E+05 EK= 0.27503E+04 SP= 0.00E+00 SK= 0.00E+00
      300 T=  3105. E= -.29673107E+05 F= -.32504517E+05 EK= 0.28314E+04 SP= 0.00E+00 SK= 0.00E+00
      310 T=  3090. E= -.29672994E+05 F= -.32491143E+05 EK= 0.28181E+04 SP= 0.00E+00 SK= 0.00E+00
      320 T=  3065. E= -.29672978E+05 F= -.32467822E+05 EK= 0.27948E+04 SP= 0.00E+00 SK= 0.00E+00
      330 T=  3058. E= -.29673032E+05 F= -.32461641E+05 EK= 0.27886E+04 SP= 0.00E+00 SK= 0.00E+00
      340 T=  3057. E= -.29673021E+05 F= -.32460875E+05 EK= 0.27879E+04 SP= 0.00E+00 SK= 0.00E+00
      350 T=  3062. E= -.29673101E+05 F= -.32465771E+05 EK= 0.27927E+04 SP= 0.00E+00 SK= 0.00E+00
      360 T=  3044. E= -.29673021E+05 F= -.32449121E+05 EK= 0.27761E+04 SP= 0.00E+00 SK= 0.00E+00
      370 T=  3069. E= -.29673021E+05 F= -.32472001E+05 EK= 0.27990E+04 SP= 0.00E+00 SK= 0.00E+00
      380 T=  3073. E= -.29673038E+05 F= -.32475496E+05 EK= 0.28025E+04 SP= 0.00E+00 SK= 0.00E+00
      390 T=  3052. E= -.29672988E+05 F= -.32455778E+05 EK= 0.27828E+04 SP= 0.00E+00 SK= 0.00E+00
      400 T=  3035. E= -.29673068E+05 F= -.32440380E+05 EK= 0.27673E+04 SP= 0.00E+00 SK= 0.00E+00
      410 T=  2983. E= -.29672943E+05 F= -.32393678E+05 EK= 0.27207E+04 SP= 0.00E+00 SK= 0.00E+00
      420 T=  3063. E= -.29673129E+05 F= -.32466621E+05 EK= 0.27935E+04 SP= 0.00E+00 SK= 0.00E+00
      430 T=  3096. E= -.29673013E+05 F= -.32496128E+05 EK= 0.28231E+04 SP= 0.00E+00 SK= 0.00E+00
      440 T=  3090. E= -.29673013E+05 F= -.32490619E+05 EK= 0.28176E+04 SP= 0.00E+00 SK= 0.00E+00
      450 T=  3077. E= -.29673022E+05 F= -.32479358E+05 EK= 0.28063E+04 SP= 0.00E+00 SK= 0.00E+00
      460 T=  3062. E= -.29672989E+05 F= -.32465081E+05 EK= 0.27921E+04 SP= 0.00E+00 SK= 0.00E+00
      470 T=  3092. E= -.29673074E+05 F= -.32492985E+05 EK= 0.28199E+04 SP= 0.00E+00 SK= 0.00E+00
      480 T=  3068. E= -.29673028E+05 F= -.32470427E+05 EK= 0.27974E+04 SP= 0.00E+00 SK= 0.00E+00
      490 T=  3033. E= -.29673013E+05 F= -.32439005E+05 EK= 0.27660E+04 SP= 0.00E+00 SK= 0.00E+00
      500 T=  3059. E= -.29673039E+05 F= -.32462452E+05 EK= 0.27894E+04 SP= 0.00E+00 SK= 0.00E+00
      510 T=  3059. E= -.29672948E+05 F= -.32462365E+05 EK= 0.27894E+04 SP= 0.00E+00 SK= 0.00E+00
      520 T=  3062. E= -.29672953E+05 F= -.32465118E+05 EK= 0.27922E+04 SP= 0.00E+00 SK= 0.00E+00
      530 T=  3047. E= -.29672956E+05 F= -.32451466E+05 EK= 0.27785E+04 SP= 0.00E+00 SK= 0.00E+00
      540 T=  3033. E= -.29672909E+05 F= -.32438511E+05 EK= 0.27656E+04 SP= 0.00E+00 SK= 0.00E+00
      550 T=  3055. E= -.29672997E+05 F= -.32458950E+05 EK= 0.27860E+04 SP= 0.00E+00 SK= 0.00E+00
      560 T=  3033. E= -.29672872E+05 F= -.32439007E+05 EK= 0.27661E+04 SP= 0.00E+00 SK= 0.00E+00
      570 T=  3063. E= -.29672953E+05 F= -.32465945E+05 EK= 0.27930E+04 SP= 0.00E+00 SK= 0.00E+00
      580 T=  3081. E= -.29673030E+05 F= -.32482370E+05 EK= 0.28093E+04 SP= 0.00E+00 SK= 0.00E+00
      590 T=  3067. E= -.29672973E+05 F= -.32469646E+05 EK= 0.27967E+04 SP= 0.00E+00 SK= 0.00E+00
      600 T=  3060. E= -.29672940E+05 F= -.32463111E+05 EK= 0.27902E+04 SP= 0.00E+00 SK= 0.00E+00
      610 T=  3057. E= -.29672948E+05 F= -.32460366E+05 EK= 0.27874E+04 SP= 0.00E+00 SK= 0.00E+00
      620 T=  3066. E= -.29673020E+05 F= -.32468614E+05 EK= 0.27956E+04 SP= 0.00E+00 SK= 0.00E+00
      630 T=  3064. E= -.29672919E+05 F= -.32466848E+05 EK= 0.27939E+04 SP= 0.00E+00 SK= 0.00E+00
      640 T=  3106. E= -.29673115E+05 F= -.32505398E+05 EK= 0.28323E+04 SP= 0.00E+00 SK= 0.00E+00
      650 T=  3037. E= -.29672931E+05 F= -.32442796E+05 EK= 0.27699E+04 SP= 0.00E+00 SK= 0.00E+00
      660 T=  3056. E= -.29673000E+05 F= -.32459447E+05 EK= 0.27864E+04 SP= 0.00E+00 SK= 0.00E+00
      670 T=  3102. E= -.29673130E+05 F= -.32501552E+05 EK= 0.28284E+04 SP= 0.00E+00 SK= 0.00E+00
      680 T=  3040. E= -.29672950E+05 F= -.32444945E+05 EK= 0.27720E+04 SP= 0.00E+00 SK= 0.00E+00
      690 T=  3046. E= -.29673019E+05 F= -.32450741E+05 EK= 0.27777E+04 SP= 0.00E+00 SK= 0.00E+00
      700 T=  3058. E= -.29673036E+05 F= -.32461467E+05 EK= 0.27884E+04 SP= 0.00E+00 SK= 0.00E+00
      710 T=  3043. E= -.29673018E+05 F= -.32447809E+05 EK= 0.27748E+04 SP= 0.00E+00 SK= 0.00E+00
      720 T=  3070. E= -.29673103E+05 F= -.32473039E+05 EK= 0.27999E+04 SP= 0.00E+00 SK= 0.00E+00
      730 T=  3034. E= -.29673068E+05 F= -.32440317E+05 EK= 0.27672E+04 SP= 0.00E+00 SK= 0.00E+00
      740 T=  3034. E= -.29673027E+05 F= -.32439705E+05 EK= 0.27667E+04 SP= 0.00E+00 SK= 0.00E+00
      750 T=  3099. E= -.29673218E+05 F= -.32498924E+05 EK= 0.28257E+04 SP= 0.00E+00 SK= 0.00E+00
      760 T=  3034. E= -.29673083E+05 F= -.32440229E+05 EK= 0.27671E+04 SP= 0.00E+00 SK= 0.00E+00
      770 T=  3031. E= -.29673031E+05 F= -.32437195E+05 EK= 0.27642E+04 SP= 0.00E+00 SK= 0.00E+00
      780 T=  3107. E= -.29673204E+05 F= -.32506855E+05 EK= 0.28337E+04 SP= 0.00E+00 SK= 0.00E+00
      790 T=  3052. E= -.29673036E+05 F= -.32456469E+05 EK= 0.27834E+04 SP= 0.00E+00 SK= 0.00E+00
      800 T=  3047. E= -.29673037E+05 F= -.32451283E+05 EK= 0.27782E+04 SP= 0.00E+00 SK= 0.00E+00
      810 T=  3071. E= -.29673058E+05 F= -.32473464E+05 EK= 0.28004E+04 SP= 0.00E+00 SK= 0.00E+00
      820 T=  3058. E= -.29673004E+05 F= -.32461673E+05 EK= 0.27887E+04 SP= 0.00E+00 SK= 0.00E+00
      830 T=  3043. E= -.29672977E+05 F= -.32447822E+05 EK= 0.27748E+04 SP= 0.00E+00 SK= 0.00E+00
      840 T=  3028. E= -.29672901E+05 F= -.32434637E+05 EK= 0.27617E+04 SP= 0.00E+00 SK= 0.00E+00
Randomizing velocities, T =  3439.
      850 T=  3471. E= -.29298445E+05 F= -.32463643E+05 EK= 0.31652E+04 SP= 0.00E+00 SK= 0.00E+00
      860 T=  3307. E= -.29298053E+05 F= -.32313570E+05 EK= 0.30155E+04 SP= 0.00E+00 SK= 0.00E+00
      870 T=  3206. E= -.29298076E+05 F= -.32221376E+05 EK= 0.29233E+04 SP= 0.00E+00 SK= 0.00E+00
      880 T=  3275. E= -.29298277E+05 F= -.32284582E+05 EK= 0.29863E+04 SP= 0.00E+00 SK= 0.00E+00
      890 T=  3247. E= -.29298132E+05 F= -.32258765E+05 EK= 0.29606E+04 SP= 0.00E+00 SK= 0.00E+00
      900 T=  3221. E= -.29298101E+05 F= -.32235293E+05 EK= 0.29372E+04 SP= 0.00E+00 SK= 0.00E+00
      910 T=  3255. E= -.29298133E+05 F= -.32266239E+05 EK= 0.29681E+04 SP= 0.00E+00 SK= 0.00E+00
      920 T=  3267. E= -.29298082E+05 F= -.32277550E+05 EK= 0.29795E+04 SP= 0.00E+00 SK= 0.00E+00
Randomizing velocities, T =  3439.
      930 T=  3482. E= -.29142799E+05 F= -.32317814E+05 EK= 0.31750E+04 SP= 0.00E+00 SK= 0.00E+00
      940 T=  3399. E= -.29142651E+05 F= -.32242727E+05 EK= 0.31001E+04 SP= 0.00E+00 SK= 0.00E+00
      950 T=  3312. E= -.29142592E+05 F= -.32162990E+05 EK= 0.30204E+04 SP= 0.00E+00 SK= 0.00E+00
      960 T=  3342. E= -.29142739E+05 F= -.32190277E+05 EK= 0.30475E+04 SP= 0.00E+00 SK= 0.00E+00
      970 T=  3317. E= -.29142680E+05 F= -.32167794E+05 EK= 0.30251E+04 SP= 0.00E+00 SK= 0.00E+00
      980 T=  3294. E= -.29142584E+05 F= -.32146723E+05 EK= 0.30041E+04 SP= 0.00E+00 SK= 0.00E+00
      990 T=  3361. E= -.29142724E+05 F= -.32208187E+05 EK= 0.30655E+04 SP= 0.00E+00 SK= 0.00E+00
     1000 T=  3334. E= -.29142599E+05 F= -.32182723E+05 EK= 0.30401E+04 SP= 0.00E+00 SK= 0.00E+00
     1010 T=  3330. E= -.29142645E+05 F= -.32179383E+05 EK= 0.30367E+04 SP= 0.00E+00 SK= 0.00E+00
     1020 T=  3361. E= -.29142659E+05 F= -.32207345E+05 EK= 0.30647E+04 SP= 0.00E+00 SK= 0.00E+00
     1030 T=  3350. E= -.29142638E+05 F= -.32197320E+05 EK= 0.30547E+04 SP= 0.00E+00 SK= 0.00E+00
     1040 T=  3312. E= -.29142621E+05 F= -.32162632E+05 EK= 0.30200E+04 SP= 0.00E+00 SK= 0.00E+00
     1050 T=  3314. E= -.29142583E+05 F= -.32165057E+05 EK= 0.30225E+04 SP= 0.00E+00 SK= 0.00E+00
     1060 T=  3374. E= -.29142734E+05 F= -.32219360E+05 EK= 0.30766E+04 SP= 0.00E+00 SK= 0.00E+00
     1070 T=  3309. E= -.29142573E+05 F= -.32159807E+05 EK= 0.30172E+04 SP= 0.00E+00 SK= 0.00E+00
     1080 T=  3305. E= -.29142645E+05 F= -.32156992E+05 EK= 0.30143E+04 SP= 0.00E+00 SK= 0.00E+00
     1090 T=  3307. E= -.29142565E+05 F= -.32158299E+05 EK= 0.30157E+04 SP= 0.00E+00 SK= 0.00E+00
     1100 T=  3351. E= -.29142659E+05 F= -.32198144E+05 EK= 0.30555E+04 SP= 0.00E+00 SK= 0.00E+00
     1110 T=  3372. E= -.29142662E+05 F= -.32217343E+05 EK= 0.30747E+04 SP= 0.00E+00 SK= 0.00E+00
     1120 T=  3352. E= -.29142624E+05 F= -.32199609E+05 EK= 0.30570E+04 SP= 0.00E+00 SK= 0.00E+00
     1130 T=  3328. E= -.29142597E+05 F= -.32177732E+05 EK= 0.30351E+04 SP= 0.00E+00 SK= 0.00E+00
     1140 T=  3311. E= -.29142526E+05 F= -.32162042E+05 EK= 0.30195E+04 SP= 0.00E+00 SK= 0.00E+00
     1150 T=  3349. E= -.29142597E+05 F= -.32196286E+05 EK= 0.30537E+04 SP= 0.00E+00 SK= 0.00E+00
     1160 T=  3342. E= -.29142578E+05 F= -.32190324E+05 EK= 0.30477E+04 SP= 0.00E+00 SK= 0.00E+00
Randomizing velocities, T =  3439.
     1170 T=  3516. E= -.29042192E+05 F= -.32248681E+05 EK= 0.32065E+04 SP= 0.00E+00 SK= 0.00E+00
     1180 T=  3395. E= -.29041957E+05 F= -.32138336E+05 EK= 0.30964E+04 SP= 0.00E+00 SK= 0.00E+00
     1190 T=  3373. E= -.29042083E+05 F= -.32118367E+05 EK= 0.30763E+04 SP= 0.00E+00 SK= 0.00E+00
     1200 T=  3384. E= -.29042065E+05 F= -.32128093E+05 EK= 0.30860E+04 SP= 0.00E+00 SK= 0.00E+00
     1210 T=  3375. E= -.29042063E+05 F= -.32120280E+05 EK= 0.30782E+04 SP= 0.00E+00 SK= 0.00E+00
     1220 T=  3370. E= -.29041975E+05 F= -.32114759E+05 EK= 0.30728E+04 SP= 0.00E+00 SK= 0.00E+00
     1230 T=  3405. E= -.29042090E+05 F= -.32146919E+05 EK= 0.31048E+04 SP= 0.00E+00 SK= 0.00E+00
     1240 T=  3370. E= -.29041946E+05 F= -.32115452E+05 EK= 0.30735E+04 SP= 0.00E+00 SK= 0.00E+00
     1250 T=  3362. E= -.29041986E+05 F= -.32107768E+05 EK= 0.30658E+04 SP= 0.00E+00 SK= 0.00E+00
     1260 T=  3361. E= -.29041962E+05 F= -.32106749E+05 EK= 0.30648E+04 SP= 0.00E+00 SK= 0.00E+00
     1270 T=  3383. E= -.29041981E+05 F= -.32127103E+05 EK= 0.30851E+04 SP= 0.00E+00 SK= 0.00E+00
     1280 T=  3372. E= -.29041916E+05 F= -.32117009E+05 EK= 0.30751E+04 SP= 0.00E+00 SK= 0.00E+00
     1290 T=  3395. E= -.29041929E+05 F= -.32137826E+05 EK= 0.30959E+04 SP= 0.00E+00 SK= 0.00E+00
     1300 T=  3418. E= -.29042046E+05 F= -.32159047E+05 EK= 0.31170E+04 SP= 0.00E+00 SK= 0.00E+00
     1310 T=  3363. E= -.29041946E+05 F= -.32109122E+05 EK= 0.30672E+04 SP= 0.00E+00 SK= 0.00E+00
     1320 T=  3384. E= -.29042043E+05 F= -.32127614E+05 EK= 0.30856E+04 SP= 0.00E+00 SK= 0.00E+00
     1330 T=  3392. E= -.29042102E+05 F= -.32135106E+05 EK= 0.30930E+04 SP= 0.00E+00 SK= 0.00E+00
     1340 T=  3335. E= -.29042009E+05 F= -.32082909E+05 EK= 0.30409E+04 SP= 0.00E+00 SK= 0.00E+00
     1350 T=  3365. E= -.29042053E+05 F= -.32110608E+05 EK= 0.30686E+04 SP= 0.00E+00 SK= 0.00E+00
     1360 T=  3403. E= -.29042045E+05 F= -.32145373E+05 EK= 0.31033E+04 SP= 0.00E+00 SK= 0.00E+00
     1370 T=  3426. E= -.29042099E+05 F= -.32166830E+05 EK= 0.31247E+04 SP= 0.00E+00 SK= 0.00E+00
     1380 T=  3393. E= -.29042020E+05 F= -.32136409E+05 EK= 0.30944E+04 SP= 0.00E+00 SK= 0.00E+00
     1390 T=  3376. E= -.29041973E+05 F= -.32120695E+05 EK= 0.30787E+04 SP= 0.00E+00 SK= 0.00E+00
     1400 T=  3402. E= -.29042014E+05 F= -.32144747E+05 EK= 0.31027E+04 SP= 0.00E+00 SK= 0.00E+00
     1410 T=  3378. E= -.29041956E+05 F= -.32122195E+05 EK= 0.30802E+04 SP= 0.00E+00 SK= 0.00E+00
     1420 T=  3372. E= -.29041988E+05 F= -.32117036E+05 EK= 0.30750E+04 SP= 0.00E+00 SK= 0.00E+00
     1430 T=  3351. E= -.29041950E+05 F= -.32098083E+05 EK= 0.30561E+04 SP= 0.00E+00 SK= 0.00E+00
     1440 T=  3392. E= -.29042062E+05 F= -.32135521E+05 EK= 0.30935E+04 SP= 0.00E+00 SK= 0.00E+00
     1450 T=  3411. E= -.29041982E+05 F= -.32152568E+05 EK= 0.31106E+04 SP= 0.00E+00 SK= 0.00E+00
     1460 T=  3428. E= -.29042042E+05 F= -.32168552E+05 EK= 0.31265E+04 SP= 0.00E+00 SK= 0.00E+00
     1470 T=  3405. E= -.29042002E+05 F= -.32146768E+05 EK= 0.31048E+04 SP= 0.00E+00 SK= 0.00E+00
     1480 T=  3391. E= -.29041999E+05 F= -.32134437E+05 EK= 0.30924E+04 SP= 0.00E+00 SK= 0.00E+00
     1490 T=  3401. E= -.29042072E+05 F= -.32143143E+05 EK= 0.31011E+04 SP= 0.00E+00 SK= 0.00E+00
     1500 T=  3390. E= -.29042081E+05 F= -.32133318E+05 EK= 0.30912E+04 SP= 0.00E+00 SK= 0.00E+00
     1510 T=  3381. E= -.29042121E+05 F= -.32125458E+05 EK= 0.30833E+04 SP= 0.00E+00 SK= 0.00E+00
     1520 T=  3377. E= -.29042085E+05 F= -.32121895E+05 EK= 0.30798E+04 SP= 0.00E+00 SK= 0.00E+00
     1530 T=  3386. E= -.29042102E+05 F= -.32129953E+05 EK= 0.30879E+04 SP= 0.00E+00 SK= 0.00E+00
     1540 T=  3393. E= -.29042063E+05 F= -.32136182E+05 EK= 0.30941E+04 SP= 0.00E+00 SK= 0.00E+00
Randomizing velocities, T =  3439.
     1550 T=  3494. E= -.29010859E+05 F= -.32196862E+05 EK= 0.31860E+04 SP= 0.00E+00 SK= 0.00E+00
     1560 T=  3416. E= -.29010552E+05 F= -.32126093E+05 EK= 0.31155E+04 SP= 0.00E+00 SK= 0.00E+00
     1570 T=  3440. E= -.29010721E+05 F= -.32148219E+05 EK= 0.31375E+04 SP= 0.00E+00 SK= 0.00E+00
     1580 T=  3411. E= -.29010674E+05 F= -.32120886E+05 EK= 0.31102E+04 SP= 0.00E+00 SK= 0.00E+00
     1590 T=  3394. E= -.29010729E+05 F= -.32105928E+05 EK= 0.30952E+04 SP= 0.00E+00 SK= 0.00E+00
     1600 T=  3404. E= -.29010688E+05 F= -.32115363E+05 EK= 0.31047E+04 SP= 0.00E+00 SK= 0.00E+00
     1610 T=  3409. E= -.29010768E+05 F= -.32119652E+05 EK= 0.31089E+04 SP= 0.00E+00 SK= 0.00E+00
     1620 T=  3399. E= -.29010674E+05 F= -.32110769E+05 EK= 0.31001E+04 SP= 0.00E+00 SK= 0.00E+00
     1630 T=  3421. E= -.29010809E+05 F= -.32130584E+05 EK= 0.31198E+04 SP= 0.00E+00 SK= 0.00E+00
     1640 T=  3329. E= -.29010607E+05 F= -.32046589E+05 EK= 0.30360E+04 SP= 0.00E+00 SK= 0.00E+00
     1650 T=  3382. E= -.29010816E+05 F= -.32095002E+05 EK= 0.30842E+04 SP= 0.00E+00 SK= 0.00E+00
     1660 T=  3397. E= -.29010678E+05 F= -.32108477E+05 EK= 0.30978E+04 SP= 0.00E+00 SK= 0.00E+00
     1670 T=  3398. E= -.29010668E+05 F= -.32109846E+05 EK= 0.30992E+04 SP= 0.00E+00 SK= 0.00E+00
     1680 T=  3432. E= -.29010746E+05 F= -.32140684E+05 EK= 0.31299E+04 SP= 0.00E+00 SK= 0.00E+00
     1690 T=  3383. E= -.29010614E+05 F= -.32095515E+05 EK= 0.30849E+04 SP= 0.00E+00 SK= 0.00E+00
     1700 T=  3390. E= -.29010687E+05 F= -.32102003E+05 EK= 0.30913E+04 SP= 0.00E+00 SK= 0.00E+00
     1710 T=  3421. E= -.29010743E+05 F= -.32130494E+05 EK= 0.31198E+04 SP= 0.00E+00 SK= 0.00E+00
     1720 T=  3380. E= -.29010694E+05 F= -.32092954E+05 EK= 0.30823E+04 SP= 0.00E+00 SK= 0.00E+00
     1730 T=  3349. E= -.29010708E+05 F= -.32064463E+05 EK= 0.30538E+04 SP= 0.00E+00 SK= 0.00E+00
     1740 T=  3366. E= -.29010692E+05 F= -.32080279E+05 EK= 0.30696E+04 SP= 0.00E+00 SK= 0.00E+00
     1750 T=  3395. E= -.29010743E+05 F= -.32106890E+05 EK= 0.30961E+04 SP= 0.00E+00 SK= 0.00E+00
     1760 T=  3393. E= -.29010654E+05 F= -.32104674E+05 EK= 0.30940E+04 SP= 0.00E+00 SK= 0.00E+00
     1770 T=  3434. E= -.29010663E+05 F= -.32142047E+05 EK= 0.31314E+04 SP= 0.00E+00 SK= 0.00E+00
     1780 T=  3450. E= -.29010656E+05 F= -.32156617E+05 EK= 0.31460E+04 SP= 0.00E+00 SK= 0.00E+00
     1790 T=  3418. E= -.29010593E+05 F= -.32127592E+05 EK= 0.31170E+04 SP= 0.00E+00 SK= 0.00E+00
     1800 T=  3441. E= -.29010680E+05 F= -.32149013E+05 EK= 0.31383E+04 SP= 0.00E+00 SK= 0.00E+00
     1810 T=  3433. E= -.29010644E+05 F= -.32141234E+05 EK= 0.31306E+04 SP= 0.00E+00 SK= 0.00E+00
     1820 T=  3413. E= -.29010661E+05 F= -.32123178E+05 EK= 0.31125E+04 SP= 0.00E+00 SK= 0.00E+00
     1830 T=  3409. E= -.29010683E+05 F= -.32119268E+05 EK= 0.31086E+04 SP= 0.00E+00 SK= 0.00E+00
     1840 T=  3383. E= -.29010600E+05 F= -.32095795E+05 EK= 0.30852E+04 SP= 0.00E+00 SK= 0.00E+00
     1850 T=  3429. E= -.29010729E+05 F= -.32137351E+05 EK= 0.31266E+04 SP= 0.00E+00 SK= 0.00E+00
     1860 T=  3437. E= -.29010741E+05 F= -.32145427E+05 EK= 0.31347E+04 SP= 0.00E+00 SK= 0.00E+00
     1870 T=  3387. E= -.29010722E+05 F= -.32099844E+05 EK= 0.30891E+04 SP= 0.00E+00 SK= 0.00E+00
     1880 T=  3394. E= -.29010792E+05 F= -.32106124E+05 EK= 0.30953E+04 SP= 0.00E+00 SK= 0.00E+00
     1890 T=  3420. E= -.29010817E+05 F= -.32129463E+05 EK= 0.31186E+04 SP= 0.00E+00 SK= 0.00E+00
     1900 T=  3400. E= -.29010774E+05 F= -.32111338E+05 EK= 0.31006E+04 SP= 0.00E+00 SK= 0.00E+00
     1910 T=  3373. E= -.29010634E+05 F= -.32086813E+05 EK= 0.30762E+04 SP= 0.00E+00 SK= 0.00E+00
     1920 T=  3414. E= -.29010743E+05 F= -.32124429E+05 EK= 0.31137E+04 SP= 0.00E+00 SK= 0.00E+00
     1930 T=  3407. E= -.29010647E+05 F= -.32117764E+05 EK= 0.31071E+04 SP= 0.00E+00 SK= 0.00E+00
     1940 T=  3406. E= -.29010667E+05 F= -.32116383E+05 EK= 0.31057E+04 SP= 0.00E+00 SK= 0.00E+00
     1950 T=  3428. E= -.29010634E+05 F= -.32137166E+05 EK= 0.31265E+04 SP= 0.00E+00 SK= 0.00E+00
     1960 T=  3451. E= -.29010574E+05 F= -.32158071E+05 EK= 0.31475E+04 SP= 0.00E+00 SK= 0.00E+00
     1970 T=  3428. E= -.29010624E+05 F= -.32136748E+05 EK= 0.31261E+04 SP= 0.00E+00 SK= 0.00E+00
     1980 T=  3367. E= -.29010532E+05 F= -.32081363E+05 EK= 0.30708E+04 SP= 0.00E+00 SK= 0.00E+00
     1990 T=  3420. E= -.29010643E+05 F= -.32129112E+05 EK= 0.31185E+04 SP= 0.00E+00 SK= 0.00E+00
At line 1940 of file md.f90
Fortran runtime error: Unit number is negative and unit was not already opened with OPEN(NEWUNIT=...)

Error termination. Backtrace:
At line 1940 of file md.f90
Fortran runtime error: Unit number is negative and unit was not already opened with OPEN(NEWUNIT=...)

Error termination. Backtrace:
At line 1940 of file md.f90
Fortran runtime error: Unit number is negative and unit was not already opened with OPEN(NEWUNIT=...)

Error termination. Backtrace:
At line 1940 of file md.f90
Fortran runtime error: Unit number is negative and unit was not already opened with OPEN(NEWUNIT=...)

Error termination. Backtrace:
At line 1940 of file md.f90
Fortran runtime error: Unit number is negative and unit was not already opened with OPEN(NEWUNIT=...)

Error termination. Backtrace:
     2000 T=  3435. E= -.29010610E+05 F= -.32143369E+05 EK= 0.31328E+04 SP= 0.00E+00 SK= 0.00E+00
Rc and Rl:   5.500000  7.321000

Average number of steps between two list updates:  22.22
Average number of atoms in the shell:     0.01
#0  0x7f67d3e81d11 in ???
#1  0x7f67d3e82859 in ???
#2  0x7f67d3e8353f in ???
#3  0x560763a3b0bc in ???
#4  0x560763a3692e in ???
#5  0x7f67d3b18082 in __libc_start_main
	at ../csu/libc-start.c:308
#6  0x560763a3696d in ???
#7  0xffffffffffffffff in ???
#0  0x7fbdb9667d11 in ???
#1  0x7fbdb9668859 in ???
#2  0x7fbdb966953f in ???
#3  0x559ddeeb70bc in ???
#4  0x559ddeeb292e in ???
#5  0x7fbdb92fe082 in __libc_start_main
	at ../csu/libc-start.c:308
#6  0x559ddeeb296d in ???
#7  0xffffffffffffffff in ???
#0  0x7f26d4765d11 in ???
#1  0x7f26d4766859 in ???
#2  0x7f26d476753f in ???
#3  0x55c44f1d10bc in ???
#4  0x55c44f1cc92e in ???
#5  0x7f26d43fc082 in __libc_start_main
	at ../csu/libc-start.c:308
#6  0x55c44f1cc96d in ???
#7  0xffffffffffffffff in ???
#0  0x7f1447509d11 in ???
#1  0x7f144750a859 in ???
#2  0x7f144750b53f in ???
#3  0x559fedf300bc in ???
#4  0x559fedf2b92e in ???
#5  0x7f14471a0082 in __libc_start_main
	at ../csu/libc-start.c:308
#6  0x559fedf2b96d in ???
#7  0xffffffffffffffff in ???
