 running on    6 nodes
 distr:  one band on    1 nodes,    6 groups
 md.x 0.99
 POSCAR found :  1 types and     7056 ions
Rc and Rl:   5.500000  7.321000
 TIPO = eam     
 TIPO1 = uknown p
 Using EAM

 EAM parameters: 
 C  =   9.9634  EPS  = 0.2048  A  = 3.5678  M  = 3.127  N  =  6.366  R1 =   5.500000


 ----------------------------------------------------------------------------- 
|                                                                             |
|           W    W    AA    RRRRR   N    N  II  N    N   GGGG   !!!           |
|           W    W   A  A   R    R  NN   N  II  NN   N  G    G  !!!           |
|           W    W  A    A  R    R  N N  N  II  N N  N  G       !!!           |
|           W WW W  AAAAAA  RRRRR   N  N N  II  N  N N  G  GGG   !            |
|           WW  WW  A    A  R   R   N   NN  II  N   NN  G    G                |
|           W    W  A    A  R    R  N    N  II  N    N   GGGG   !!!           |
|                                                                             |
|      VASP found  21165 degrees of freedom                                   |
|      the temperature will equal 2*E(kin)/ (degrees of freedom)              |
|      this differs from previous releases, where T was 2*E(kin)/(3 NIONS).   |
|      The new definition is more consistent                                  |
|                                                                             |
 ----------------------------------------------------------------------------- 

 Random init:       26839        4410
 Random init:       26839        4410
 Random init:       26839        4410
 Random init:       26839        4410
 alloco spazio per displ
 Random init:       26839        4410
 Random init:       26839        4410
       10 T=  3517. E= -.29012732E+05 F= -.32219625E+05 EK= 0.32069E+04 SP= 0.00E+00 SK= 0.00E+00
       20 T=  3418. E= -.29012453E+05 F= -.32129490E+05 EK= 0.31170E+04 SP= 0.00E+00 SK= 0.00E+00
       30 T=  3416. E= -.29012592E+05 F= -.32128195E+05 EK= 0.31156E+04 SP= 0.00E+00 SK= 0.00E+00
       40 T=  3428. E= -.29012624E+05 F= -.32138813E+05 EK= 0.31262E+04 SP= 0.00E+00 SK= 0.00E+00
       50 T=  3377. E= -.29012616E+05 F= -.32091962E+05 EK= 0.30793E+04 SP= 0.00E+00 SK= 0.00E+00
       60 T=  3366. E= -.29012600E+05 F= -.32082129E+05 EK= 0.30695E+04 SP= 0.00E+00 SK= 0.00E+00
       70 T=  3386. E= -.29012627E+05 F= -.32100712E+05 EK= 0.30881E+04 SP= 0.00E+00 SK= 0.00E+00
       80 T=  3394. E= -.29012611E+05 F= -.32107772E+05 EK= 0.30952E+04 SP= 0.00E+00 SK= 0.00E+00
       90 T=  3442. E= -.29012669E+05 F= -.32151170E+05 EK= 0.31385E+04 SP= 0.00E+00 SK= 0.00E+00
      100 T=  3423. E= -.29012604E+05 F= -.32133799E+05 EK= 0.31212E+04 SP= 0.00E+00 SK= 0.00E+00
      110 T=  3408. E= -.29012558E+05 F= -.32120868E+05 EK= 0.31083E+04 SP= 0.00E+00 SK= 0.00E+00
      120 T=  3428. E= -.29012645E+05 F= -.32139205E+05 EK= 0.31266E+04 SP= 0.00E+00 SK= 0.00E+00
      130 T=  3390. E= -.29012547E+05 F= -.32104130E+05 EK= 0.30916E+04 SP= 0.00E+00 SK= 0.00E+00
      140 T=  3398. E= -.29012699E+05 F= -.32111609E+05 EK= 0.30989E+04 SP= 0.00E+00 SK= 0.00E+00
      150 T=  3369. E= -.29012581E+05 F= -.32084704E+05 EK= 0.30721E+04 SP= 0.00E+00 SK= 0.00E+00
      160 T=  3417. E= -.29012696E+05 F= -.32129011E+05 EK= 0.31163E+04 SP= 0.00E+00 SK= 0.00E+00
      170 T=  3424. E= -.29012654E+05 F= -.32134730E+05 EK= 0.31221E+04 SP= 0.00E+00 SK= 0.00E+00
      180 T=  3420. E= -.29012631E+05 F= -.32131103E+05 EK= 0.31185E+04 SP= 0.00E+00 SK= 0.00E+00
      190 T=  3412. E= -.29012542E+05 F= -.32123680E+05 EK= 0.31111E+04 SP= 0.00E+00 SK= 0.00E+00
      200 T=  3413. E= -.29012599E+05 F= -.32124811E+05 EK= 0.31122E+04 SP= 0.00E+00 SK= 0.00E+00
      210 T=  3404. E= -.29012606E+05 F= -.32116659E+05 EK= 0.31041E+04 SP= 0.00E+00 SK= 0.00E+00
      220 T=  3394. E= -.29012586E+05 F= -.32107610E+05 EK= 0.30950E+04 SP= 0.00E+00 SK= 0.00E+00
      230 T=  3380. E= -.29012601E+05 F= -.32094723E+05 EK= 0.30821E+04 SP= 0.00E+00 SK= 0.00E+00
      240 T=  3372. E= -.29012551E+05 F= -.32087420E+05 EK= 0.30749E+04 SP= 0.00E+00 SK= 0.00E+00
      250 T=  3407. E= -.29012626E+05 F= -.32119565E+05 EK= 0.31069E+04 SP= 0.00E+00 SK= 0.00E+00
      260 T=  3382. E= -.29012498E+05 F= -.32096467E+05 EK= 0.30840E+04 SP= 0.00E+00 SK= 0.00E+00
      270 T=  3421. E= -.29012525E+05 F= -.32131963E+05 EK= 0.31194E+04 SP= 0.00E+00 SK= 0.00E+00
      280 T=  3466. E= -.29012685E+05 F= -.32173014E+05 EK= 0.31603E+04 SP= 0.00E+00 SK= 0.00E+00
      290 T=  3406. E= -.29012532E+05 F= -.32118532E+05 EK= 0.31060E+04 SP= 0.00E+00 SK= 0.00E+00
      300 T=  3424. E= -.29012621E+05 F= -.32134646E+05 EK= 0.31220E+04 SP= 0.00E+00 SK= 0.00E+00
      310 T=  3414. E= -.29012618E+05 F= -.32125882E+05 EK= 0.31133E+04 SP= 0.00E+00 SK= 0.00E+00
      320 T=  3352. E= -.29012535E+05 F= -.32069496E+05 EK= 0.30570E+04 SP= 0.00E+00 SK= 0.00E+00
      330 T=  3378. E= -.29012491E+05 F= -.32092840E+05 EK= 0.30803E+04 SP= 0.00E+00 SK= 0.00E+00
      340 T=  3449. E= -.29012613E+05 F= -.32157750E+05 EK= 0.31451E+04 SP= 0.00E+00 SK= 0.00E+00
      350 T=  3396. E= -.29012424E+05 F= -.32109191E+05 EK= 0.30968E+04 SP= 0.00E+00 SK= 0.00E+00
      360 T=  3399. E= -.29012418E+05 F= -.32111768E+05 EK= 0.30994E+04 SP= 0.00E+00 SK= 0.00E+00
      370 T=  3451. E= -.29012522E+05 F= -.32159874E+05 EK= 0.31474E+04 SP= 0.00E+00 SK= 0.00E+00
      380 T=  3417. E= -.29012497E+05 F= -.32129014E+05 EK= 0.31165E+04 SP= 0.00E+00 SK= 0.00E+00
      390 T=  3363. E= -.29012386E+05 F= -.32079389E+05 EK= 0.30670E+04 SP= 0.00E+00 SK= 0.00E+00
      400 T=  3420. E= -.29012631E+05 F= -.32131664E+05 EK= 0.31190E+04 SP= 0.00E+00 SK= 0.00E+00
      410 T=  3387. E= -.29012448E+05 F= -.32100938E+05 EK= 0.30885E+04 SP= 0.00E+00 SK= 0.00E+00
      420 T=  3407. E= -.29012550E+05 F= -.32119483E+05 EK= 0.31069E+04 SP= 0.00E+00 SK= 0.00E+00
      430 T=  3418. E= -.29012561E+05 F= -.32129697E+05 EK= 0.31171E+04 SP= 0.00E+00 SK= 0.00E+00
      440 T=  3386. E= -.29012573E+05 F= -.32100239E+05 EK= 0.30877E+04 SP= 0.00E+00 SK= 0.00E+00
      450 T=  3379. E= -.29012621E+05 F= -.32094225E+05 EK= 0.30816E+04 SP= 0.00E+00 SK= 0.00E+00
      460 T=  3371. E= -.29012500E+05 F= -.32086646E+05 EK= 0.30741E+04 SP= 0.00E+00 SK= 0.00E+00
      470 T=  3429. E= -.29012665E+05 F= -.32139246E+05 EK= 0.31266E+04 SP= 0.00E+00 SK= 0.00E+00
      480 T=  3396. E= -.29012557E+05 F= -.32109109E+05 EK= 0.30966E+04 SP= 0.00E+00 SK= 0.00E+00
      490 T=  3359. E= -.29012498E+05 F= -.32075375E+05 EK= 0.30629E+04 SP= 0.00E+00 SK= 0.00E+00
      500 T=  3414. E= -.29012599E+05 F= -.32126211E+05 EK= 0.31136E+04 SP= 0.00E+00 SK= 0.00E+00
      510 T=  3439. E= -.29012593E+05 F= -.32148384E+05 EK= 0.31358E+04 SP= 0.00E+00 SK= 0.00E+00
      520 T=  3418. E= -.29012628E+05 F= -.32129621E+05 EK= 0.31170E+04 SP= 0.00E+00 SK= 0.00E+00
      530 T=  3415. E= -.29012688E+05 F= -.32126553E+05 EK= 0.31139E+04 SP= 0.00E+00 SK= 0.00E+00
      540 T=  3390. E= -.29012684E+05 F= -.32104292E+05 EK= 0.30916E+04 SP= 0.00E+00 SK= 0.00E+00
      550 T=  3390. E= -.29012650E+05 F= -.32104191E+05 EK= 0.30915E+04 SP= 0.00E+00 SK= 0.00E+00
      560 T=  3401. E= -.29012652E+05 F= -.32114476E+05 EK= 0.31018E+04 SP= 0.00E+00 SK= 0.00E+00
      570 T=  3382. E= -.29012615E+05 F= -.32096435E+05 EK= 0.30838E+04 SP= 0.00E+00 SK= 0.00E+00
      580 T=  3372. E= -.29012533E+05 F= -.32087410E+05 EK= 0.30749E+04 SP= 0.00E+00 SK= 0.00E+00
      590 T=  3401. E= -.29012615E+05 F= -.32113950E+05 EK= 0.31013E+04 SP= 0.00E+00 SK= 0.00E+00
      600 T=  3411. E= -.29012570E+05 F= -.32123045E+05 EK= 0.31105E+04 SP= 0.00E+00 SK= 0.00E+00
      610 T=  3457. E= -.29012610E+05 F= -.32165274E+05 EK= 0.31527E+04 SP= 0.00E+00 SK= 0.00E+00
      620 T=  3463. E= -.29012630E+05 F= -.32170858E+05 EK= 0.31582E+04 SP= 0.00E+00 SK= 0.00E+00
      630 T=  3384. E= -.29012485E+05 F= -.32098120E+05 EK= 0.30856E+04 SP= 0.00E+00 SK= 0.00E+00
      640 T=  3422. E= -.29012621E+05 F= -.32133687E+05 EK= 0.31211E+04 SP= 0.00E+00 SK= 0.00E+00
      650 T=  3456. E= -.29012614E+05 F= -.32164337E+05 EK= 0.31517E+04 SP= 0.00E+00 SK= 0.00E+00
      660 T=  3391. E= -.29012508E+05 F= -.32104657E+05 EK= 0.30921E+04 SP= 0.00E+00 SK= 0.00E+00
      670 T=  3383. E= -.29012527E+05 F= -.32097433E+05 EK= 0.30849E+04 SP= 0.00E+00 SK= 0.00E+00
      680 T=  3390. E= -.29012544E+05 F= -.32104012E+05 EK= 0.30915E+04 SP= 0.00E+00 SK= 0.00E+00
      690 T=  3389. E= -.29012503E+05 F= -.32103369E+05 EK= 0.30909E+04 SP= 0.00E+00 SK= 0.00E+00
      700 T=  3443. E= -.29012572E+05 F= -.32152513E+05 EK= 0.31399E+04 SP= 0.00E+00 SK= 0.00E+00
      710 T=  3431. E= -.29012569E+05 F= -.32141819E+05 EK= 0.31292E+04 SP= 0.00E+00 SK= 0.00E+00
      720 T=  3381. E= -.29012469E+05 F= -.32096000E+05 EK= 0.30835E+04 SP= 0.00E+00 SK= 0.00E+00
      730 T=  3419. E= -.29012593E+05 F= -.32130155E+05 EK= 0.31176E+04 SP= 0.00E+00 SK= 0.00E+00
      740 T=  3403. E= -.29012466E+05 F= -.32116112E+05 EK= 0.31036E+04 SP= 0.00E+00 SK= 0.00E+00
      750 T=  3383. E= -.29012450E+05 F= -.32097641E+05 EK= 0.30852E+04 SP= 0.00E+00 SK= 0.00E+00
      760 T=  3387. E= -.29012444E+05 F= -.32100972E+05 EK= 0.30885E+04 SP= 0.00E+00 SK= 0.00E+00
      770 T=  3431. E= -.29012491E+05 F= -.32140892E+05 EK= 0.31284E+04 SP= 0.00E+00 SK= 0.00E+00
      780 T=  3423. E= -.29012460E+05 F= -.32134175E+05 EK= 0.31217E+04 SP= 0.00E+00 SK= 0.00E+00
      790 T=  3412. E= -.29012398E+05 F= -.32123781E+05 EK= 0.31114E+04 SP= 0.00E+00 SK= 0.00E+00
      800 T=  3419. E= -.29012470E+05 F= -.32130116E+05 EK= 0.31176E+04 SP= 0.00E+00 SK= 0.00E+00
      810 T=  3391. E= -.29012373E+05 F= -.32104932E+05 EK= 0.30926E+04 SP= 0.00E+00 SK= 0.00E+00
      820 T=  3427. E= -.29012425E+05 F= -.32137531E+05 EK= 0.31251E+04 SP= 0.00E+00 SK= 0.00E+00
      830 T=  3428. E= -.29012435E+05 F= -.32138945E+05 EK= 0.31265E+04 SP= 0.00E+00 SK= 0.00E+00
      840 T=  3392. E= -.29012407E+05 F= -.32105850E+05 EK= 0.30934E+04 SP= 0.00E+00 SK= 0.00E+00
      850 T=  3375. E= -.29012423E+05 F= -.32090373E+05 EK= 0.30779E+04 SP= 0.00E+00 SK= 0.00E+00
      860 T=  3378. E= -.29012389E+05 F= -.32092973E+05 EK= 0.30806E+04 SP= 0.00E+00 SK= 0.00E+00
      870 T=  3359. E= -.29012332E+05 F= -.32075557E+05 EK= 0.30632E+04 SP= 0.00E+00 SK= 0.00E+00
      880 T=  3357. E= -.29012338E+05 F= -.32073715E+05 EK= 0.30614E+04 SP= 0.00E+00 SK= 0.00E+00
      890 T=  3362. E= -.29012280E+05 F= -.32078660E+05 EK= 0.30664E+04 SP= 0.00E+00 SK= 0.00E+00
      900 T=  3404. E= -.29012254E+05 F= -.32116742E+05 EK= 0.31045E+04 SP= 0.00E+00 SK= 0.00E+00
      910 T=  3464. E= -.29012325E+05 F= -.32170825E+05 EK= 0.31585E+04 SP= 0.00E+00 SK= 0.00E+00
      920 T=  3413. E= -.29012182E+05 F= -.32124821E+05 EK= 0.31126E+04 SP= 0.00E+00 SK= 0.00E+00
      930 T=  3413. E= -.29012212E+05 F= -.32124404E+05 EK= 0.31122E+04 SP= 0.00E+00 SK= 0.00E+00
      940 T=  3415. E= -.29012200E+05 F= -.32126773E+05 EK= 0.31146E+04 SP= 0.00E+00 SK= 0.00E+00
      950 T=  3399. E= -.29012152E+05 F= -.32111759E+05 EK= 0.30996E+04 SP= 0.00E+00 SK= 0.00E+00
      960 T=  3428. E= -.29012184E+05 F= -.32138070E+05 EK= 0.31259E+04 SP= 0.00E+00 SK= 0.00E+00
      970 T=  3445. E= -.29012238E+05 F= -.32153783E+05 EK= 0.31415E+04 SP= 0.00E+00 SK= 0.00E+00
      980 T=  3385. E= -.29012144E+05 F= -.32099386E+05 EK= 0.30872E+04 SP= 0.00E+00 SK= 0.00E+00
      990 T=  3368. E= -.29012089E+05 F= -.32083255E+05 EK= 0.30712E+04 SP= 0.00E+00 SK= 0.00E+00
     1000 T=  3406. E= -.29012135E+05 F= -.32118591E+05 EK= 0.31065E+04 SP= 0.00E+00 SK= 0.00E+00
     1010 T=  3399. E= -.29012115E+05 F= -.32112163E+05 EK= 0.31000E+04 SP= 0.00E+00 SK= 0.00E+00
     1020 T=  3404. E= -.29012151E+05 F= -.32116475E+05 EK= 0.31043E+04 SP= 0.00E+00 SK= 0.00E+00
     1030 T=  3382. E= -.29012097E+05 F= -.32096540E+05 EK= 0.30844E+04 SP= 0.00E+00 SK= 0.00E+00
     1040 T=  3336. E= -.29012047E+05 F= -.32054209E+05 EK= 0.30422E+04 SP= 0.00E+00 SK= 0.00E+00
     1050 T=  3354. E= -.29012102E+05 F= -.32070998E+05 EK= 0.30589E+04 SP= 0.00E+00 SK= 0.00E+00
     1060 T=  3380. E= -.29012118E+05 F= -.32094468E+05 EK= 0.30824E+04 SP= 0.00E+00 SK= 0.00E+00
     1070 T=  3390. E= -.29012101E+05 F= -.32103689E+05 EK= 0.30916E+04 SP= 0.00E+00 SK= 0.00E+00
     1080 T=  3413. E= -.29012121E+05 F= -.32124351E+05 EK= 0.31122E+04 SP= 0.00E+00 SK= 0.00E+00
     1090 T=  3408. E= -.29012069E+05 F= -.32119544E+05 EK= 0.31075E+04 SP= 0.00E+00 SK= 0.00E+00
     1100 T=  3390. E= -.29012053E+05 F= -.32103103E+05 EK= 0.30910E+04 SP= 0.00E+00 SK= 0.00E+00
     1110 T=  3379. E= -.29012006E+05 F= -.32093239E+05 EK= 0.30812E+04 SP= 0.00E+00 SK= 0.00E+00
     1120 T=  3398. E= -.29011989E+05 F= -.32110792E+05 EK= 0.30988E+04 SP= 0.00E+00 SK= 0.00E+00
     1130 T=  3424. E= -.29012006E+05 F= -.32134208E+05 EK= 0.31222E+04 SP= 0.00E+00 SK= 0.00E+00
     1140 T=  3375. E= -.29011876E+05 F= -.32089321E+05 EK= 0.30774E+04 SP= 0.00E+00 SK= 0.00E+00
     1150 T=  3388. E= -.29012024E+05 F= -.32101994E+05 EK= 0.30900E+04 SP= 0.00E+00 SK= 0.00E+00
     1160 T=  3415. E= -.29012053E+05 F= -.32126674E+05 EK= 0.31146E+04 SP= 0.00E+00 SK= 0.00E+00
     1170 T=  3415. E= -.29011974E+05 F= -.32126051E+05 EK= 0.31141E+04 SP= 0.00E+00 SK= 0.00E+00
     1180 T=  3462. E= -.29012042E+05 F= -.32169019E+05 EK= 0.31570E+04 SP= 0.00E+00 SK= 0.00E+00
     1190 T=  3464. E= -.29012027E+05 F= -.32170608E+05 EK= 0.31586E+04 SP= 0.00E+00 SK= 0.00E+00
     1200 T=  3432. E= -.29012050E+05 F= -.32141750E+05 EK= 0.31297E+04 SP= 0.00E+00 SK= 0.00E+00
     1210 T=  3381. E= -.29012034E+05 F= -.32095577E+05 EK= 0.30835E+04 SP= 0.00E+00 SK= 0.00E+00
     1220 T=  3369. E= -.29012044E+05 F= -.32084340E+05 EK= 0.30723E+04 SP= 0.00E+00 SK= 0.00E+00
     1230 T=  3406. E= -.29012085E+05 F= -.32118283E+05 EK= 0.31062E+04 SP= 0.00E+00 SK= 0.00E+00
     1240 T=  3419. E= -.29012061E+05 F= -.32129930E+05 EK= 0.31179E+04 SP= 0.00E+00 SK= 0.00E+00
     1250 T=  3399. E= -.29011992E+05 F= -.32111923E+05 EK= 0.30999E+04 SP= 0.00E+00 SK= 0.00E+00
     1260 T=  3402. E= -.29012068E+05 F= -.32114107E+05 EK= 0.31020E+04 SP= 0.00E+00 SK= 0.00E+00
     1270 T=  3372. E= -.29012028E+05 F= -.32087425E+05 EK= 0.30754E+04 SP= 0.00E+00 SK= 0.00E+00
     1280 T=  3392. E= -.29012096E+05 F= -.32105546E+05 EK= 0.30935E+04 SP= 0.00E+00 SK= 0.00E+00
     1290 T=  3415. E= -.29012111E+05 F= -.32126748E+05 EK= 0.31146E+04 SP= 0.00E+00 SK= 0.00E+00
     1300 T=  3388. E= -.29012122E+05 F= -.32101766E+05 EK= 0.30896E+04 SP= 0.00E+00 SK= 0.00E+00
     1310 T=  3354. E= -.29012108E+05 F= -.32070852E+05 EK= 0.30587E+04 SP= 0.00E+00 SK= 0.00E+00
     1320 T=  3368. E= -.29012154E+05 F= -.32083982E+05 EK= 0.30718E+04 SP= 0.00E+00 SK= 0.00E+00
     1330 T=  3360. E= -.29012018E+05 F= -.32076308E+05 EK= 0.30643E+04 SP= 0.00E+00 SK= 0.00E+00
     1340 T=  3397. E= -.29012093E+05 F= -.32109498E+05 EK= 0.30974E+04 SP= 0.00E+00 SK= 0.00E+00
     1350 T=  3424. E= -.29012129E+05 F= -.32134459E+05 EK= 0.31223E+04 SP= 0.00E+00 SK= 0.00E+00
     1360 T=  3383. E= -.29012101E+05 F= -.32097492E+05 EK= 0.30854E+04 SP= 0.00E+00 SK= 0.00E+00
     1370 T=  3371. E= -.29012053E+05 F= -.32086561E+05 EK= 0.30745E+04 SP= 0.00E+00 SK= 0.00E+00
     1380 T=  3437. E= -.29012181E+05 F= -.32146188E+05 EK= 0.31340E+04 SP= 0.00E+00 SK= 0.00E+00
     1390 T=  3395. E= -.29012169E+05 F= -.32108330E+05 EK= 0.30962E+04 SP= 0.00E+00 SK= 0.00E+00
     1400 T=  3371. E= -.29012125E+05 F= -.32086632E+05 EK= 0.30745E+04 SP= 0.00E+00 SK= 0.00E+00
     1410 T=  3395. E= -.29012157E+05 F= -.32107721E+05 EK= 0.30956E+04 SP= 0.00E+00 SK= 0.00E+00
     1420 T=  3379. E= -.29011974E+05 F= -.32093371E+05 EK= 0.30814E+04 SP= 0.00E+00 SK= 0.00E+00
     1430 T=  3435. E= -.29012190E+05 F= -.32144501E+05 EK= 0.31323E+04 SP= 0.00E+00 SK= 0.00E+00
     1440 T=  3402. E= -.29012012E+05 F= -.32114351E+05 EK= 0.31023E+04 SP= 0.00E+00 SK= 0.00E+00
     1450 T=  3429. E= -.29012136E+05 F= -.32138786E+05 EK= 0.31266E+04 SP= 0.00E+00 SK= 0.00E+00
     1460 T=  3408. E= -.29012119E+05 F= -.32119541E+05 EK= 0.31074E+04 SP= 0.00E+00 SK= 0.00E+00
     1470 T=  3395. E= -.29012140E+05 F= -.32107709E+05 EK= 0.30956E+04 SP= 0.00E+00 SK= 0.00E+00
     1480 T=  3407. E= -.29012174E+05 F= -.32118760E+05 EK= 0.31066E+04 SP= 0.00E+00 SK= 0.00E+00
     1490 T=  3404. E= -.29012225E+05 F= -.32116695E+05 EK= 0.31045E+04 SP= 0.00E+00 SK= 0.00E+00
     1500 T=  3399. E= -.29012235E+05 F= -.32111535E+05 EK= 0.30993E+04 SP= 0.00E+00 SK= 0.00E+00
     1510 T=  3436. E= -.29012255E+05 F= -.32145268E+05 EK= 0.31330E+04 SP= 0.00E+00 SK= 0.00E+00
     1520 T=  3455. E= -.29012337E+05 F= -.32163374E+05 EK= 0.31510E+04 SP= 0.00E+00 SK= 0.00E+00
     1530 T=  3414. E= -.29012284E+05 F= -.32125433E+05 EK= 0.31131E+04 SP= 0.00E+00 SK= 0.00E+00
     1540 T=  3391. E= -.29012256E+05 F= -.32104409E+05 EK= 0.30922E+04 SP= 0.00E+00 SK= 0.00E+00
     1550 T=  3406. E= -.29012307E+05 F= -.32118069E+05 EK= 0.31058E+04 SP= 0.00E+00 SK= 0.00E+00
     1560 T=  3397. E= -.29012161E+05 F= -.32109849E+05 EK= 0.30977E+04 SP= 0.00E+00 SK= 0.00E+00
     1570 T=  3430. E= -.29012164E+05 F= -.32140217E+05 EK= 0.31281E+04 SP= 0.00E+00 SK= 0.00E+00
     1580 T=  3436. E= -.29012168E+05 F= -.32145444E+05 EK= 0.31333E+04 SP= 0.00E+00 SK= 0.00E+00
     1590 T=  3401. E= -.29012163E+05 F= -.32113633E+05 EK= 0.31015E+04 SP= 0.00E+00 SK= 0.00E+00
     1600 T=  3388. E= -.29012123E+05 F= -.32101618E+05 EK= 0.30895E+04 SP= 0.00E+00 SK= 0.00E+00
     1610 T=  3389. E= -.29012160E+05 F= -.32102793E+05 EK= 0.30906E+04 SP= 0.00E+00 SK= 0.00E+00
     1620 T=  3379. E= -.29012071E+05 F= -.32093052E+05 EK= 0.30810E+04 SP= 0.00E+00 SK= 0.00E+00
     1630 T=  3395. E= -.29012154E+05 F= -.32108401E+05 EK= 0.30962E+04 SP= 0.00E+00 SK= 0.00E+00
     1640 T=  3400. E= -.29012098E+05 F= -.32112553E+05 EK= 0.31005E+04 SP= 0.00E+00 SK= 0.00E+00
     1650 T=  3396. E= -.29011989E+05 F= -.32108857E+05 EK= 0.30969E+04 SP= 0.00E+00 SK= 0.00E+00
     1660 T=  3431. E= -.29012125E+05 F= -.32140572E+05 EK= 0.31284E+04 SP= 0.00E+00 SK= 0.00E+00
     1670 T=  3408. E= -.29012052E+05 F= -.32120032E+05 EK= 0.31080E+04 SP= 0.00E+00 SK= 0.00E+00
     1680 T=  3417. E= -.29012103E+05 F= -.32128168E+05 EK= 0.31161E+04 SP= 0.00E+00 SK= 0.00E+00
     1690 T=  3416. E= -.29012122E+05 F= -.32127600E+05 EK= 0.31155E+04 SP= 0.00E+00 SK= 0.00E+00
     1700 T=  3371. E= -.29012070E+05 F= -.32086530E+05 EK= 0.30745E+04 SP= 0.00E+00 SK= 0.00E+00
     1710 T=  3388. E= -.29012150E+05 F= -.32101527E+05 EK= 0.30894E+04 SP= 0.00E+00 SK= 0.00E+00
     1720 T=  3392. E= -.29012143E+05 F= -.32105157E+05 EK= 0.30930E+04 SP= 0.00E+00 SK= 0.00E+00
     1730 T=  3376. E= -.29012025E+05 F= -.32090318E+05 EK= 0.30783E+04 SP= 0.00E+00 SK= 0.00E+00
     1740 T=  3440. E= -.29012191E+05 F= -.32149585E+05 EK= 0.31374E+04 SP= 0.00E+00 SK= 0.00E+00
     1750 T=  3425. E= -.29012213E+05 F= -.32135692E+05 EK= 0.31235E+04 SP= 0.00E+00 SK= 0.00E+00
     1760 T=  3362. E= -.29012050E+05 F= -.32077927E+05 EK= 0.30659E+04 SP= 0.00E+00 SK= 0.00E+00
     1770 T=  3398. E= -.29012169E+05 F= -.32110706E+05 EK= 0.30985E+04 SP= 0.00E+00 SK= 0.00E+00
     1780 T=  3389. E= -.29012093E+05 F= -.32102742E+05 EK= 0.30906E+04 SP= 0.00E+00 SK= 0.00E+00
     1790 T=  3400. E= -.29012112E+05 F= -.32112244E+05 EK= 0.31001E+04 SP= 0.00E+00 SK= 0.00E+00
     1800 T=  3452. E= -.29012189E+05 F= -.32160072E+05 EK= 0.31479E+04 SP= 0.00E+00 SK= 0.00E+00
     1810 T=  3417. E= -.29012071E+05 F= -.32127962E+05 EK= 0.31159E+04 SP= 0.00E+00 SK= 0.00E+00
     1820 T=  3401. E= -.29012097E+05 F= -.32113334E+05 EK= 0.31012E+04 SP= 0.00E+00 SK= 0.00E+00
     1830 T=  3411. E= -.29012099E+05 F= -.32122391E+05 EK= 0.31103E+04 SP= 0.00E+00 SK= 0.00E+00
     1840 T=  3380. E= -.29011990E+05 F= -.32094427E+05 EK= 0.30824E+04 SP= 0.00E+00 SK= 0.00E+00
     1850 T=  3390. E= -.29012055E+05 F= -.32103490E+05 EK= 0.30914E+04 SP= 0.00E+00 SK= 0.00E+00
     1860 T=  3387. E= -.29012036E+05 F= -.32100894E+05 EK= 0.30889E+04 SP= 0.00E+00 SK= 0.00E+00
     1870 T=  3380. E= -.29011965E+05 F= -.32094592E+05 EK= 0.30826E+04 SP= 0.00E+00 SK= 0.00E+00
     1880 T=  3419. E= -.29012123E+05 F= -.32129644E+05 EK= 0.31175E+04 SP= 0.00E+00 SK= 0.00E+00
     1890 T=  3354. E= -.29011988E+05 F= -.32070696E+05 EK= 0.30587E+04 SP= 0.00E+00 SK= 0.00E+00
     1900 T=  3400. E= -.29012161E+05 F= -.32113022E+05 EK= 0.31009E+04 SP= 0.00E+00 SK= 0.00E+00
     1910 T=  3413. E= -.29012139E+05 F= -.32125019E+05 EK= 0.31129E+04 SP= 0.00E+00 SK= 0.00E+00
     1920 T=  3414. E= -.29012154E+05 F= -.32125250E+05 EK= 0.31131E+04 SP= 0.00E+00 SK= 0.00E+00
     1930 T=  3400. E= -.29012092E+05 F= -.32112498E+05 EK= 0.31004E+04 SP= 0.00E+00 SK= 0.00E+00
     1940 T=  3437. E= -.29012176E+05 F= -.32146539E+05 EK= 0.31344E+04 SP= 0.00E+00 SK= 0.00E+00
     1950 T=  3401. E= -.29012116E+05 F= -.32113350E+05 EK= 0.31012E+04 SP= 0.00E+00 SK= 0.00E+00
     1960 T=  3377. E= -.29012036E+05 F= -.32091599E+05 EK= 0.30796E+04 SP= 0.00E+00 SK= 0.00E+00
     1970 T=  3420. E= -.29012158E+05 F= -.32131231E+05 EK= 0.31191E+04 SP= 0.00E+00 SK= 0.00E+00
     1980 T=  3376. E= -.29011987E+05 F= -.32090338E+05 EK= 0.30784E+04 SP= 0.00E+00 SK= 0.00E+00
     1990 T=  3414. E= -.29012058E+05 F= -.32125842E+05 EK= 0.31138E+04 SP= 0.00E+00 SK= 0.00E+00
At line 1940 of file md.f90
Fortran runtime error: Unit number is negative and unit was not already opened with OPEN(NEWUNIT=...)

Error termination. Backtrace:
At line 1940 of file md.f90
Fortran runtime error: Unit number is negative and unit was not already opened with OPEN(NEWUNIT=...)

Error termination. Backtrace:
At line 1940 of file md.f90
Fortran runtime error: Unit number is negative and unit was not already opened with OPEN(NEWUNIT=...)

Error termination. Backtrace:
At line 1940 of file md.f90
Fortran runtime error: Unit number is negative and unit was not already opened with OPEN(NEWUNIT=...)

Error termination. Backtrace:
At line 1940 of file md.f90
Fortran runtime error: Unit number is negative and unit was not already opened with OPEN(NEWUNIT=...)

Error termination. Backtrace:
     2000 T=  3415. E= -.29012041E+05 F= -.32126196E+05 EK= 0.31142E+04 SP= 0.00E+00 SK= 0.00E+00
Rc and Rl:   5.500000  7.321000

Average number of steps between two list updates:  21.05
Average number of atoms in the shell:     0.01
#0  0x7fe493fe4d11 in ???
#1  0x7fe493fe5859 in ???
#2  0x7fe493fe653f in ???
#3  0x56091e3d60bc in ???
#4  0x56091e3d192e in ???
#5  0x7fe493c7b082 in __libc_start_main
	at ../csu/libc-start.c:308
#6  0x56091e3d196d in ???
#7  0xffffffffffffffff in ???
#0  0x7f862be35d11 in ???
#1  0x7f862be36859 in ???
#2  0x7f862be3753f in ???
#3  0x558e1d4df0bc in ???
#4  0x558e1d4da92e in ???
#5  0x7f862bacc082 in __libc_start_main
	at ../csu/libc-start.c:308
#6  0x558e1d4da96d in ???
#7  0xffffffffffffffff in ???
#0  0x7f1db090ad11 in ???
#1  0x7f1db090b859 in ???
#2  0x7f1db090c53f in ???
#3  0x56351f1f40bc in ???
#4  0x56351f1ef92e in ???
#5  0x7f1db05a1082 in __libc_start_main
	at ../csu/libc-start.c:308
#6  0x56351f1ef96d in ???
#7  0xffffffffffffffff in ???
#0  0x7f5169fbdd11 in ???
#1  0x7f5169fbe859 in ???
#2  0x7f5169fbf53f in ???
#3  0x55faa38470bc in ???
#4  0x55faa384292e in ???
#5  0x7f5169c54082 in __libc_start_main
	at ../csu/libc-start.c:308
#6  0x55faa384296d in ???
#7  0xffffffffffffffff in ???
#0  0x7f25ff70ed11 in ???
#1  0x7f25ff70f859 in ???
#2  0x7f25ff71053f in ???
#3  0x5636559190bc in ???
#4  0x56365591492e in ???
#5  0x7f25ff3a5082 in __libc_start_main
	at ../csu/libc-start.c:308
#6  0x56365591496d in ???
#7  0xffffffffffffffff in ???
