 running on    6 nodes
 distr:  one band on    1 nodes,    6 groups
 md.x 0.99
 POSCAR found :  1 types and     7056 ions
Rc and Rl:   5.500000  7.321000
 TIPO = eam     
 TIPO1 = uknown p
 Using EAM

 EAM parameters: 
 C  =   9.9634  EPS  = 0.2048  A  = 3.5678  M  = 3.127  N  =  6.366  R1 =   5.500000


 ----------------------------------------------------------------------------- 
|                                                                             |
|           W    W    AA    RRRRR   N    N  II  N    N   GGGG   !!!           |
|           W    W   A  A   R    R  NN   N  II  NN   N  G    G  !!!           |
|           W    W  A    A  R    R  N N  N  II  N N  N  G       !!!           |
|           W WW W  AAAAAA  RRRRR   N  N N  II  N  N N  G  GGG   !            |
|           WW  WW  A    A  R   R   N   NN  II  N   NN  G    G                |
|           W    W  A    A  R    R  N    N  II  N    N   GGGG   !!!           |
|                                                                             |
|      VASP found  21165 degrees of freedom                                   |
|      the temperature will equal 2*E(kin)/ (degrees of freedom)              |
|      this differs from previous releases, where T was 2*E(kin)/(3 NIONS).   |
|      The new definition is more consistent                                  |
|                                                                             |
 ----------------------------------------------------------------------------- 

 Random init:        8494       16065
 Random init:        8494       16065
 Random init:        8494       16065
 Random init:        8494       16065
 Random init:        8494       16065
 Random init:        8494       16065
 alloco spazio per displ
       10 T=  4604. E= -.26193357E+05 F= -.30392153E+05 EK= 0.41988E+04 SP= 0.00E+00 SK= 0.00E+00
       20 T=  4453. E= -.26192991E+05 F= -.30254231E+05 EK= 0.40612E+04 SP= 0.00E+00 SK= 0.00E+00
       30 T=  4441. E= -.26193143E+05 F= -.30242604E+05 EK= 0.40495E+04 SP= 0.00E+00 SK= 0.00E+00
       40 T=  4467. E= -.26193025E+05 F= -.30266395E+05 EK= 0.40734E+04 SP= 0.00E+00 SK= 0.00E+00
       50 T=  4490. E= -.26193184E+05 F= -.30287882E+05 EK= 0.40947E+04 SP= 0.00E+00 SK= 0.00E+00
       60 T=  4429. E= -.26193015E+05 F= -.30232334E+05 EK= 0.40393E+04 SP= 0.00E+00 SK= 0.00E+00
       70 T=  4428. E= -.26193067E+05 F= -.30231141E+05 EK= 0.40381E+04 SP= 0.00E+00 SK= 0.00E+00
       80 T=  4402. E= -.26192942E+05 F= -.30207510E+05 EK= 0.40146E+04 SP= 0.00E+00 SK= 0.00E+00
       90 T=  4411. E= -.26192901E+05 F= -.30215525E+05 EK= 0.40226E+04 SP= 0.00E+00 SK= 0.00E+00
      100 T=  4438. E= -.26192931E+05 F= -.30239769E+05 EK= 0.40468E+04 SP= 0.00E+00 SK= 0.00E+00
      110 T=  4443. E= -.26192846E+05 F= -.30244128E+05 EK= 0.40513E+04 SP= 0.00E+00 SK= 0.00E+00
      120 T=  4446. E= -.26192964E+05 F= -.30247537E+05 EK= 0.40546E+04 SP= 0.00E+00 SK= 0.00E+00
      130 T=  4420. E= -.26192919E+05 F= -.30223759E+05 EK= 0.40308E+04 SP= 0.00E+00 SK= 0.00E+00
      140 T=  4447. E= -.26193004E+05 F= -.30248198E+05 EK= 0.40552E+04 SP= 0.00E+00 SK= 0.00E+00
      150 T=  4428. E= -.26193046E+05 F= -.30230728E+05 EK= 0.40377E+04 SP= 0.00E+00 SK= 0.00E+00
      160 T=  4403. E= -.26193059E+05 F= -.30208509E+05 EK= 0.40155E+04 SP= 0.00E+00 SK= 0.00E+00
      170 T=  4412. E= -.26193095E+05 F= -.30216954E+05 EK= 0.40239E+04 SP= 0.00E+00 SK= 0.00E+00
      180 T=  4412. E= -.26193138E+05 F= -.30216547E+05 EK= 0.40234E+04 SP= 0.00E+00 SK= 0.00E+00
      190 T=  4390. E= -.26193040E+05 F= -.30196732E+05 EK= 0.40037E+04 SP= 0.00E+00 SK= 0.00E+00
      200 T=  4403. E= -.26193129E+05 F= -.30208754E+05 EK= 0.40156E+04 SP= 0.00E+00 SK= 0.00E+00
      210 T=  4376. E= -.26192985E+05 F= -.30183659E+05 EK= 0.39907E+04 SP= 0.00E+00 SK= 0.00E+00
      220 T=  4373. E= -.26193040E+05 F= -.30180606E+05 EK= 0.39876E+04 SP= 0.00E+00 SK= 0.00E+00
      230 T=  4389. E= -.26193058E+05 F= -.30195833E+05 EK= 0.40028E+04 SP= 0.00E+00 SK= 0.00E+00
      240 T=  4403. E= -.26193109E+05 F= -.30208282E+05 EK= 0.40152E+04 SP= 0.00E+00 SK= 0.00E+00
      250 T=  4353. E= -.26193033E+05 F= -.30163117E+05 EK= 0.39701E+04 SP= 0.00E+00 SK= 0.00E+00
      260 T=  4378. E= -.26193181E+05 F= -.30185814E+05 EK= 0.39926E+04 SP= 0.00E+00 SK= 0.00E+00
      270 T=  4367. E= -.26193169E+05 F= -.30175260E+05 EK= 0.39821E+04 SP= 0.00E+00 SK= 0.00E+00
      280 T=  4354. E= -.26193195E+05 F= -.30163717E+05 EK= 0.39705E+04 SP= 0.00E+00 SK= 0.00E+00
      290 T=  4367. E= -.26193176E+05 F= -.30175618E+05 EK= 0.39824E+04 SP= 0.00E+00 SK= 0.00E+00
      300 T=  4312. E= -.26193004E+05 F= -.30125222E+05 EK= 0.39322E+04 SP= 0.00E+00 SK= 0.00E+00
      310 T=  4319. E= -.26193024E+05 F= -.30131643E+05 EK= 0.39386E+04 SP= 0.00E+00 SK= 0.00E+00
      320 T=  4355. E= -.26193075E+05 F= -.30164332E+05 EK= 0.39713E+04 SP= 0.00E+00 SK= 0.00E+00
      330 T=  4378. E= -.26192972E+05 F= -.30185805E+05 EK= 0.39928E+04 SP= 0.00E+00 SK= 0.00E+00
      340 T=  4392. E= -.26192988E+05 F= -.30198090E+05 EK= 0.40051E+04 SP= 0.00E+00 SK= 0.00E+00
      350 T=  4329. E= -.26192906E+05 F= -.30140508E+05 EK= 0.39476E+04 SP= 0.00E+00 SK= 0.00E+00
      360 T=  4295. E= -.26192926E+05 F= -.30109728E+05 EK= 0.39168E+04 SP= 0.00E+00 SK= 0.00E+00
      370 T=  4339. E= -.26193113E+05 F= -.30149559E+05 EK= 0.39564E+04 SP= 0.00E+00 SK= 0.00E+00
      380 T=  4311. E= -.26192930E+05 F= -.30124146E+05 EK= 0.39312E+04 SP= 0.00E+00 SK= 0.00E+00
      390 T=  4340. E= -.26192969E+05 F= -.30150376E+05 EK= 0.39574E+04 SP= 0.00E+00 SK= 0.00E+00
      400 T=  4350. E= -.26193035E+05 F= -.30160343E+05 EK= 0.39673E+04 SP= 0.00E+00 SK= 0.00E+00
      410 T=  4285. E= -.26192841E+05 F= -.30100719E+05 EK= 0.39079E+04 SP= 0.00E+00 SK= 0.00E+00
      420 T=  4299. E= -.26192872E+05 F= -.30113200E+05 EK= 0.39203E+04 SP= 0.00E+00 SK= 0.00E+00
      430 T=  4299. E= -.26192898E+05 F= -.30113753E+05 EK= 0.39209E+04 SP= 0.00E+00 SK= 0.00E+00
      440 T=  4279. E= -.26192795E+05 F= -.30095107E+05 EK= 0.39023E+04 SP= 0.00E+00 SK= 0.00E+00
      450 T=  4303. E= -.26192912E+05 F= -.30117406E+05 EK= 0.39245E+04 SP= 0.00E+00 SK= 0.00E+00
      460 T=  4305. E= -.26192858E+05 F= -.30118756E+05 EK= 0.39259E+04 SP= 0.00E+00 SK= 0.00E+00
      470 T=  4293. E= -.26192829E+05 F= -.30107534E+05 EK= 0.39147E+04 SP= 0.00E+00 SK= 0.00E+00
      480 T=  4341. E= -.26192871E+05 F= -.30151126E+05 EK= 0.39583E+04 SP= 0.00E+00 SK= 0.00E+00
      490 T=  4397. E= -.26192961E+05 F= -.30202810E+05 EK= 0.40098E+04 SP= 0.00E+00 SK= 0.00E+00
      500 T=  4318. E= -.26192785E+05 F= -.30130612E+05 EK= 0.39378E+04 SP= 0.00E+00 SK= 0.00E+00
      510 T=  4313. E= -.26192814E+05 F= -.30126046E+05 EK= 0.39332E+04 SP= 0.00E+00 SK= 0.00E+00
      520 T=  4312. E= -.26192822E+05 F= -.30124881E+05 EK= 0.39321E+04 SP= 0.00E+00 SK= 0.00E+00
      530 T=  4309. E= -.26192833E+05 F= -.30122294E+05 EK= 0.39295E+04 SP= 0.00E+00 SK= 0.00E+00
      540 T=  4287. E= -.26192906E+05 F= -.30102776E+05 EK= 0.39099E+04 SP= 0.00E+00 SK= 0.00E+00
      550 T=  4257. E= -.26192763E+05 F= -.30075280E+05 EK= 0.38825E+04 SP= 0.00E+00 SK= 0.00E+00
      560 T=  4292. E= -.26192871E+05 F= -.30107119E+05 EK= 0.39142E+04 SP= 0.00E+00 SK= 0.00E+00
      570 T=  4246. E= -.26192781E+05 F= -.30064446E+05 EK= 0.38717E+04 SP= 0.00E+00 SK= 0.00E+00
      580 T=  4284. E= -.26193031E+05 F= -.30100025E+05 EK= 0.39070E+04 SP= 0.00E+00 SK= 0.00E+00
      590 T=  4272. E= -.26192746E+05 F= -.30088936E+05 EK= 0.38962E+04 SP= 0.00E+00 SK= 0.00E+00
      600 T=  4303. E= -.26192866E+05 F= -.30116912E+05 EK= 0.39240E+04 SP= 0.00E+00 SK= 0.00E+00
      610 T=  4293. E= -.26192836E+05 F= -.30107635E+05 EK= 0.39148E+04 SP= 0.00E+00 SK= 0.00E+00
      620 T=  4312. E= -.26192902E+05 F= -.30125313E+05 EK= 0.39324E+04 SP= 0.00E+00 SK= 0.00E+00
      630 T=  4275. E= -.26192760E+05 F= -.30091666E+05 EK= 0.38989E+04 SP= 0.00E+00 SK= 0.00E+00
      640 T=  4280. E= -.26192788E+05 F= -.30095536E+05 EK= 0.39027E+04 SP= 0.00E+00 SK= 0.00E+00
      650 T=  4295. E= -.26192901E+05 F= -.30109339E+05 EK= 0.39164E+04 SP= 0.00E+00 SK= 0.00E+00
      660 T=  4244. E= -.26192685E+05 F= -.30063029E+05 EK= 0.38703E+04 SP= 0.00E+00 SK= 0.00E+00
      670 T=  4268. E= -.26192878E+05 F= -.30085186E+05 EK= 0.38923E+04 SP= 0.00E+00 SK= 0.00E+00
      680 T=  4232. E= -.26192748E+05 F= -.30052361E+05 EK= 0.38596E+04 SP= 0.00E+00 SK= 0.00E+00
      690 T=  4279. E= -.26192820E+05 F= -.30094711E+05 EK= 0.39019E+04 SP= 0.00E+00 SK= 0.00E+00
      700 T=  4277. E= -.26192805E+05 F= -.30093098E+05 EK= 0.39003E+04 SP= 0.00E+00 SK= 0.00E+00
      710 T=  4236. E= -.26192848E+05 F= -.30055541E+05 EK= 0.38627E+04 SP= 0.00E+00 SK= 0.00E+00
      720 T=  4238. E= -.26192869E+05 F= -.30057485E+05 EK= 0.38646E+04 SP= 0.00E+00 SK= 0.00E+00
      730 T=  4291. E= -.26193033E+05 F= -.30106097E+05 EK= 0.39131E+04 SP= 0.00E+00 SK= 0.00E+00
      740 T=  4273. E= -.26192869E+05 F= -.30089175E+05 EK= 0.38963E+04 SP= 0.00E+00 SK= 0.00E+00
      750 T=  4287. E= -.26192931E+05 F= -.30102049E+05 EK= 0.39091E+04 SP= 0.00E+00 SK= 0.00E+00
      760 T=  4272. E= -.26192979E+05 F= -.30089016E+05 EK= 0.38960E+04 SP= 0.00E+00 SK= 0.00E+00
      770 T=  4282. E= -.26192880E+05 F= -.30097887E+05 EK= 0.39050E+04 SP= 0.00E+00 SK= 0.00E+00
      780 T=  4276. E= -.26192920E+05 F= -.30092682E+05 EK= 0.38998E+04 SP= 0.00E+00 SK= 0.00E+00
      790 T=  4223. E= -.26192907E+05 F= -.30043999E+05 EK= 0.38511E+04 SP= 0.00E+00 SK= 0.00E+00
      800 T=  4207. E= -.26192862E+05 F= -.30028987E+05 EK= 0.38361E+04 SP= 0.00E+00 SK= 0.00E+00
      810 T=  4239. E= -.26192879E+05 F= -.30058649E+05 EK= 0.38658E+04 SP= 0.00E+00 SK= 0.00E+00
      820 T=  4208. E= -.26192709E+05 F= -.30030468E+05 EK= 0.38378E+04 SP= 0.00E+00 SK= 0.00E+00
      830 T=  4240. E= -.26192976E+05 F= -.30059186E+05 EK= 0.38662E+04 SP= 0.00E+00 SK= 0.00E+00
      840 T=  4186. E= -.26192724E+05 F= -.30009662E+05 EK= 0.38169E+04 SP= 0.00E+00 SK= 0.00E+00
      850 T=  4210. E= -.26192904E+05 F= -.30032492E+05 EK= 0.38396E+04 SP= 0.00E+00 SK= 0.00E+00
      860 T=  4216. E= -.26192946E+05 F= -.30037741E+05 EK= 0.38448E+04 SP= 0.00E+00 SK= 0.00E+00
      870 T=  4208. E= -.26192856E+05 F= -.30030229E+05 EK= 0.38374E+04 SP= 0.00E+00 SK= 0.00E+00
      880 T=  4245. E= -.26192841E+05 F= -.30063744E+05 EK= 0.38709E+04 SP= 0.00E+00 SK= 0.00E+00
      890 T=  4267. E= -.26192769E+05 F= -.30084158E+05 EK= 0.38914E+04 SP= 0.00E+00 SK= 0.00E+00
      900 T=  4229. E= -.26192748E+05 F= -.30049091E+05 EK= 0.38563E+04 SP= 0.00E+00 SK= 0.00E+00
      910 T=  4203. E= -.26192775E+05 F= -.30025240E+05 EK= 0.38325E+04 SP= 0.00E+00 SK= 0.00E+00
      920 T=  4200. E= -.26192795E+05 F= -.30022999E+05 EK= 0.38302E+04 SP= 0.00E+00 SK= 0.00E+00
      930 T=  4195. E= -.26192761E+05 F= -.30018644E+05 EK= 0.38259E+04 SP= 0.00E+00 SK= 0.00E+00
      940 T=  4248. E= -.26192880E+05 F= -.30066754E+05 EK= 0.38739E+04 SP= 0.00E+00 SK= 0.00E+00
      950 T=  4237. E= -.26192823E+05 F= -.30056593E+05 EK= 0.38638E+04 SP= 0.00E+00 SK= 0.00E+00
      960 T=  4230. E= -.26192742E+05 F= -.30050353E+05 EK= 0.38576E+04 SP= 0.00E+00 SK= 0.00E+00
      970 T=  4265. E= -.26192913E+05 F= -.30082676E+05 EK= 0.38898E+04 SP= 0.00E+00 SK= 0.00E+00
      980 T=  4196. E= -.26192846E+05 F= -.30019645E+05 EK= 0.38268E+04 SP= 0.00E+00 SK= 0.00E+00
      990 T=  4134. E= -.26192819E+05 F= -.29962460E+05 EK= 0.37696E+04 SP= 0.00E+00 SK= 0.00E+00
     1000 T=  4176. E= -.26192871E+05 F= -.30001436E+05 EK= 0.38086E+04 SP= 0.00E+00 SK= 0.00E+00
     1010 T=  4229. E= -.26193020E+05 F= -.30049677E+05 EK= 0.38567E+04 SP= 0.00E+00 SK= 0.00E+00
     1020 T=  4167. E= -.26192770E+05 F= -.29992687E+05 EK= 0.37999E+04 SP= 0.00E+00 SK= 0.00E+00
     1030 T=  4194. E= -.26192904E+05 F= -.30017294E+05 EK= 0.38244E+04 SP= 0.00E+00 SK= 0.00E+00
     1040 T=  4180. E= -.26192780E+05 F= -.30004360E+05 EK= 0.38116E+04 SP= 0.00E+00 SK= 0.00E+00
     1050 T=  4244. E= -.26193073E+05 F= -.30063286E+05 EK= 0.38702E+04 SP= 0.00E+00 SK= 0.00E+00
     1060 T=  4189. E= -.26192849E+05 F= -.30012672E+05 EK= 0.38198E+04 SP= 0.00E+00 SK= 0.00E+00
     1070 T=  4207. E= -.26192918E+05 F= -.30029181E+05 EK= 0.38363E+04 SP= 0.00E+00 SK= 0.00E+00
     1080 T=  4223. E= -.26192872E+05 F= -.30044426E+05 EK= 0.38516E+04 SP= 0.00E+00 SK= 0.00E+00
     1090 T=  4229. E= -.26192964E+05 F= -.30049636E+05 EK= 0.38567E+04 SP= 0.00E+00 SK= 0.00E+00
     1100 T=  4210. E= -.26192874E+05 F= -.30031755E+05 EK= 0.38389E+04 SP= 0.00E+00 SK= 0.00E+00
     1110 T=  4210. E= -.26193070E+05 F= -.30032350E+05 EK= 0.38393E+04 SP= 0.00E+00 SK= 0.00E+00
     1120 T=  4165. E= -.26192841E+05 F= -.29990954E+05 EK= 0.37981E+04 SP= 0.00E+00 SK= 0.00E+00
     1130 T=  4229. E= -.26193007E+05 F= -.30049360E+05 EK= 0.38564E+04 SP= 0.00E+00 SK= 0.00E+00
     1140 T=  4156. E= -.26192884E+05 F= -.29983276E+05 EK= 0.37904E+04 SP= 0.00E+00 SK= 0.00E+00
     1150 T=  4154. E= -.26192945E+05 F= -.29981051E+05 EK= 0.37881E+04 SP= 0.00E+00 SK= 0.00E+00
     1160 T=  4156. E= -.26192886E+05 F= -.29982575E+05 EK= 0.37897E+04 SP= 0.00E+00 SK= 0.00E+00
     1170 T=  4172. E= -.26192888E+05 F= -.29997747E+05 EK= 0.38049E+04 SP= 0.00E+00 SK= 0.00E+00
     1180 T=  4195. E= -.26192935E+05 F= -.30018888E+05 EK= 0.38260E+04 SP= 0.00E+00 SK= 0.00E+00
     1190 T=  4159. E= -.26192887E+05 F= -.29985753E+05 EK= 0.37929E+04 SP= 0.00E+00 SK= 0.00E+00
     1200 T=  4146. E= -.26192903E+05 F= -.29973572E+05 EK= 0.37807E+04 SP= 0.00E+00 SK= 0.00E+00
     1210 T=  4182. E= -.26193064E+05 F= -.30006932E+05 EK= 0.38139E+04 SP= 0.00E+00 SK= 0.00E+00
     1220 T=  4164. E= -.26192908E+05 F= -.29990090E+05 EK= 0.37972E+04 SP= 0.00E+00 SK= 0.00E+00
     1230 T=  4175. E= -.26193079E+05 F= -.30000389E+05 EK= 0.38073E+04 SP= 0.00E+00 SK= 0.00E+00
     1240 T=  4111. E= -.26192844E+05 F= -.29941943E+05 EK= 0.37491E+04 SP= 0.00E+00 SK= 0.00E+00
     1250 T=  4159. E= -.26193081E+05 F= -.29985840E+05 EK= 0.37928E+04 SP= 0.00E+00 SK= 0.00E+00
     1260 T=  4143. E= -.26192947E+05 F= -.29970950E+05 EK= 0.37780E+04 SP= 0.00E+00 SK= 0.00E+00
     1270 T=  4154. E= -.26192941E+05 F= -.29980949E+05 EK= 0.37880E+04 SP= 0.00E+00 SK= 0.00E+00
     1280 T=  4161. E= -.26192931E+05 F= -.29987114E+05 EK= 0.37942E+04 SP= 0.00E+00 SK= 0.00E+00
     1290 T=  4134. E= -.26192857E+05 F= -.29962952E+05 EK= 0.37701E+04 SP= 0.00E+00 SK= 0.00E+00
     1300 T=  4150. E= -.26192901E+05 F= -.29976996E+05 EK= 0.37841E+04 SP= 0.00E+00 SK= 0.00E+00
     1310 T=  4153. E= -.26192976E+05 F= -.29980241E+05 EK= 0.37873E+04 SP= 0.00E+00 SK= 0.00E+00
     1320 T=  4107. E= -.26192908E+05 F= -.29937806E+05 EK= 0.37449E+04 SP= 0.00E+00 SK= 0.00E+00
     1330 T=  4136. E= -.26192944E+05 F= -.29964959E+05 EK= 0.37720E+04 SP= 0.00E+00 SK= 0.00E+00
     1340 T=  4142. E= -.26192917E+05 F= -.29970519E+05 EK= 0.37776E+04 SP= 0.00E+00 SK= 0.00E+00
     1350 T=  4112. E= -.26192902E+05 F= -.29942878E+05 EK= 0.37500E+04 SP= 0.00E+00 SK= 0.00E+00
     1360 T=  4122. E= -.26192994E+05 F= -.29951752E+05 EK= 0.37588E+04 SP= 0.00E+00 SK= 0.00E+00
     1370 T=  4143. E= -.26192949E+05 F= -.29970665E+05 EK= 0.37777E+04 SP= 0.00E+00 SK= 0.00E+00
     1380 T=  4136. E= -.26192856E+05 F= -.29964598E+05 EK= 0.37717E+04 SP= 0.00E+00 SK= 0.00E+00
     1390 T=  4134. E= -.26192894E+05 F= -.29962450E+05 EK= 0.37696E+04 SP= 0.00E+00 SK= 0.00E+00
     1400 T=  4101. E= -.26192807E+05 F= -.29932410E+05 EK= 0.37396E+04 SP= 0.00E+00 SK= 0.00E+00
     1410 T=  4100. E= -.26192767E+05 F= -.29931710E+05 EK= 0.37389E+04 SP= 0.00E+00 SK= 0.00E+00
     1420 T=  4143. E= -.26192928E+05 F= -.29971182E+05 EK= 0.37783E+04 SP= 0.00E+00 SK= 0.00E+00
     1430 T=  4093. E= -.26192679E+05 F= -.29925156E+05 EK= 0.37325E+04 SP= 0.00E+00 SK= 0.00E+00
     1440 T=  4185. E= -.26192969E+05 F= -.30009070E+05 EK= 0.38161E+04 SP= 0.00E+00 SK= 0.00E+00
     1450 T=  4156. E= -.26192759E+05 F= -.29982613E+05 EK= 0.37899E+04 SP= 0.00E+00 SK= 0.00E+00
     1460 T=  4180. E= -.26192917E+05 F= -.30004386E+05 EK= 0.38115E+04 SP= 0.00E+00 SK= 0.00E+00
     1470 T=  4160. E= -.26192797E+05 F= -.29986081E+05 EK= 0.37933E+04 SP= 0.00E+00 SK= 0.00E+00
     1480 T=  4156. E= -.26192815E+05 F= -.29983055E+05 EK= 0.37902E+04 SP= 0.00E+00 SK= 0.00E+00
     1490 T=  4172. E= -.26192907E+05 F= -.29997633E+05 EK= 0.38047E+04 SP= 0.00E+00 SK= 0.00E+00
     1500 T=  4149. E= -.26192937E+05 F= -.29976762E+05 EK= 0.37838E+04 SP= 0.00E+00 SK= 0.00E+00
     1510 T=  4101. E= -.26192817E+05 F= -.29932581E+05 EK= 0.37398E+04 SP= 0.00E+00 SK= 0.00E+00
     1520 T=  4141. E= -.26192915E+05 F= -.29969613E+05 EK= 0.37767E+04 SP= 0.00E+00 SK= 0.00E+00
     1530 T=  4148. E= -.26192920E+05 F= -.29975187E+05 EK= 0.37823E+04 SP= 0.00E+00 SK= 0.00E+00
     1540 T=  4082. E= -.26192818E+05 F= -.29914892E+05 EK= 0.37221E+04 SP= 0.00E+00 SK= 0.00E+00
     1550 T=  4108. E= -.26192959E+05 F= -.29938880E+05 EK= 0.37459E+04 SP= 0.00E+00 SK= 0.00E+00
     1560 T=  4107. E= -.26192823E+05 F= -.29938075E+05 EK= 0.37453E+04 SP= 0.00E+00 SK= 0.00E+00
     1570 T=  4101. E= -.26192865E+05 F= -.29932464E+05 EK= 0.37396E+04 SP= 0.00E+00 SK= 0.00E+00
     1580 T=  4130. E= -.26192816E+05 F= -.29959069E+05 EK= 0.37663E+04 SP= 0.00E+00 SK= 0.00E+00
     1590 T=  4168. E= -.26192831E+05 F= -.29994173E+05 EK= 0.38013E+04 SP= 0.00E+00 SK= 0.00E+00
     1600 T=  4139. E= -.26192832E+05 F= -.29967527E+05 EK= 0.37747E+04 SP= 0.00E+00 SK= 0.00E+00
     1610 T=  4090. E= -.26192668E+05 F= -.29922554E+05 EK= 0.37299E+04 SP= 0.00E+00 SK= 0.00E+00
     1620 T=  4158. E= -.26192877E+05 F= -.29984511E+05 EK= 0.37916E+04 SP= 0.00E+00 SK= 0.00E+00
     1630 T=  4136. E= -.26192822E+05 F= -.29964717E+05 EK= 0.37719E+04 SP= 0.00E+00 SK= 0.00E+00
     1640 T=  4135. E= -.26192785E+05 F= -.29963632E+05 EK= 0.37708E+04 SP= 0.00E+00 SK= 0.00E+00
     1650 T=  4161. E= -.26192684E+05 F= -.29987173E+05 EK= 0.37945E+04 SP= 0.00E+00 SK= 0.00E+00
     1660 T=  4146. E= -.26192685E+05 F= -.29973495E+05 EK= 0.37808E+04 SP= 0.00E+00 SK= 0.00E+00
     1670 T=  4094. E= -.26192682E+05 F= -.29926086E+05 EK= 0.37334E+04 SP= 0.00E+00 SK= 0.00E+00
     1680 T=  4120. E= -.26192767E+05 F= -.29950392E+05 EK= 0.37576E+04 SP= 0.00E+00 SK= 0.00E+00
     1690 T=  4144. E= -.26192619E+05 F= -.29971294E+05 EK= 0.37787E+04 SP= 0.00E+00 SK= 0.00E+00
     1700 T=  4163. E= -.26192701E+05 F= -.29989134E+05 EK= 0.37964E+04 SP= 0.00E+00 SK= 0.00E+00
     1710 T=  4140. E= -.26192631E+05 F= -.29968152E+05 EK= 0.37755E+04 SP= 0.00E+00 SK= 0.00E+00
     1720 T=  4121. E= -.26192665E+05 F= -.29950821E+05 EK= 0.37582E+04 SP= 0.00E+00 SK= 0.00E+00
     1730 T=  4110. E= -.26192626E+05 F= -.29940401E+05 EK= 0.37478E+04 SP= 0.00E+00 SK= 0.00E+00
     1740 T=  4149. E= -.26192736E+05 F= -.29976180E+05 EK= 0.37834E+04 SP= 0.00E+00 SK= 0.00E+00
     1750 T=  4119. E= -.26192606E+05 F= -.29948914E+05 EK= 0.37563E+04 SP= 0.00E+00 SK= 0.00E+00
     1760 T=  4126. E= -.26192606E+05 F= -.29955440E+05 EK= 0.37628E+04 SP= 0.00E+00 SK= 0.00E+00
     1770 T=  4114. E= -.26192608E+05 F= -.29944075E+05 EK= 0.37515E+04 SP= 0.00E+00 SK= 0.00E+00
     1780 T=  4110. E= -.26192602E+05 F= -.29940759E+05 EK= 0.37482E+04 SP= 0.00E+00 SK= 0.00E+00
     1790 T=  4159. E= -.26192776E+05 F= -.29985647E+05 EK= 0.37929E+04 SP= 0.00E+00 SK= 0.00E+00
     1800 T=  4109. E= -.26192565E+05 F= -.29940081E+05 EK= 0.37475E+04 SP= 0.00E+00 SK= 0.00E+00
     1810 T=  4105. E= -.26192581E+05 F= -.29936157E+05 EK= 0.37436E+04 SP= 0.00E+00 SK= 0.00E+00
     1820 T=  4109. E= -.26192491E+05 F= -.29939486E+05 EK= 0.37470E+04 SP= 0.00E+00 SK= 0.00E+00
     1830 T=  4126. E= -.26192467E+05 F= -.29955210E+05 EK= 0.37627E+04 SP= 0.00E+00 SK= 0.00E+00
     1840 T=  4147. E= -.26192663E+05 F= -.29974254E+05 EK= 0.37816E+04 SP= 0.00E+00 SK= 0.00E+00
     1850 T=  4080. E= -.26192463E+05 F= -.29913575E+05 EK= 0.37211E+04 SP= 0.00E+00 SK= 0.00E+00
     1860 T=  4115. E= -.26192646E+05 F= -.29945071E+05 EK= 0.37524E+04 SP= 0.00E+00 SK= 0.00E+00
     1870 T=  4133. E= -.26192520E+05 F= -.29961255E+05 EK= 0.37687E+04 SP= 0.00E+00 SK= 0.00E+00
     1880 T=  4122. E= -.26192510E+05 F= -.29951342E+05 EK= 0.37588E+04 SP= 0.00E+00 SK= 0.00E+00
     1890 T=  4128. E= -.26192543E+05 F= -.29956624E+05 EK= 0.37641E+04 SP= 0.00E+00 SK= 0.00E+00
     1900 T=  4125. E= -.26192604E+05 F= -.29954318E+05 EK= 0.37617E+04 SP= 0.00E+00 SK= 0.00E+00
     1910 T=  4074. E= -.26192434E+05 F= -.29907300E+05 EK= 0.37149E+04 SP= 0.00E+00 SK= 0.00E+00
     1920 T=  4154. E= -.26192536E+05 F= -.29980538E+05 EK= 0.37880E+04 SP= 0.00E+00 SK= 0.00E+00
     1930 T=  4181. E= -.26192649E+05 F= -.30005211E+05 EK= 0.38126E+04 SP= 0.00E+00 SK= 0.00E+00
     1940 T=  4095. E= -.26192448E+05 F= -.29926452E+05 EK= 0.37340E+04 SP= 0.00E+00 SK= 0.00E+00
     1950 T=  4158. E= -.26192626E+05 F= -.29984266E+05 EK= 0.37916E+04 SP= 0.00E+00 SK= 0.00E+00
     1960 T=  4143. E= -.26192491E+05 F= -.29970472E+05 EK= 0.37780E+04 SP= 0.00E+00 SK= 0.00E+00
     1970 T=  4135. E= -.26192538E+05 F= -.29963741E+05 EK= 0.37712E+04 SP= 0.00E+00 SK= 0.00E+00
     1980 T=  4138. E= -.26192606E+05 F= -.29966469E+05 EK= 0.37739E+04 SP= 0.00E+00 SK= 0.00E+00
     1990 T=  4126. E= -.26192586E+05 F= -.29955183E+05 EK= 0.37626E+04 SP= 0.00E+00 SK= 0.00E+00
At line 1940 of file md.f90
Fortran runtime error: Unit number is negative and unit was not already opened with OPEN(NEWUNIT=...)

Error termination. Backtrace:
At line 1940 of file md.f90
Fortran runtime error: Unit number is negative and unit was not already opened with OPEN(NEWUNIT=...)

Error termination. Backtrace:
At line 1940 of file md.f90
Fortran runtime error: Unit number is negative and unit was not already opened with OPEN(NEWUNIT=...)

Error termination. Backtrace:
At line 1940 of file md.f90
Fortran runtime error: Unit number is negative and unit was not already opened with OPEN(NEWUNIT=...)

Error termination. Backtrace:
At line 1940 of file md.f90
Fortran runtime error: Unit number is negative and unit was not already opened with OPEN(NEWUNIT=...)

Error termination. Backtrace:
     2000 T=  4132. E= -.26192584E+05 F= -.29960500E+05 EK= 0.37679E+04 SP= 0.00E+00 SK= 0.00E+00
Rc and Rl:   5.500000  7.321000

Average number of steps between two list updates:  18.52
Average number of atoms in the shell:     0.01
#0  0x7f227124bd11 in ???
#1  0x7f227124c859 in ???
#2  0x7f227124d53f in ???
#3  0x55e530d900bc in ???
#4  0x55e530d8b92e in ???
#5  0x7f2270ee2082 in __libc_start_main
	at ../csu/libc-start.c:308
#6  0x55e530d8b96d in ???
#7  0xffffffffffffffff in ???
#0  0x7f216b32ed11 in ???
#1  0x7f216b32f859 in ???
#2  0x7f216b33053f in ???
#3  0x5609959740bc in ???
#4  0x56099596f92e in ???
#5  0x7f216afc5082 in __libc_start_main
	at ../csu/libc-start.c:308
#6  0x56099596f96d in ???
#7  0xffffffffffffffff in ???
#0  0x7f43e38b1d11 in ???
#1  0x7f43e38b2859 in ???
#2  0x7f43e38b353f in ???
#3  0x556c6133c0bc in ???
#4  0x556c6133792e in ???
#5  0x7f43e3548082 in __libc_start_main
	at ../csu/libc-start.c:308
#6  0x556c6133796d in ???
#7  0xffffffffffffffff in ???
#0  0x7f589ef90d11 in ???
#1  0x7f589ef91859 in ???
#2  0x7f589ef9253f in ???
#3  0x55c92ee8d0bc in ???
#4  0x55c92ee8892e in ???
#5  0x7f589ec27082 in __libc_start_main
	at ../csu/libc-start.c:308
#6  0x55c92ee8896d in ???
#7  0xffffffffffffffff in ???
#0  0x7f5080c15d11 in ???
#1  0x7f5080c16859 in ???
#2  0x7f5080c1753f in ???
#3  0x55dd7bea90bc in ???
#4  0x55dd7bea492e in ???
#5  0x7f50808ac082 in __libc_start_main
	at ../csu/libc-start.c:308
#6  0x55dd7bea496d in ???
#7  0xffffffffffffffff in ???
