 running on    6 nodes
 distr:  one band on    1 nodes,    6 groups
 md.x 0.99
 POSCAR found :  1 types and     7056 ions
Rc and Rl:   5.500000  7.321000
 TIPO = eam     
 TIPO1 = uknown p
 Using EAM

 EAM parameters: 
 C  =   9.9634  EPS  = 0.2048  A  = 3.5678  M  = 3.127  N  =  6.366  R1 =   5.500000


 ----------------------------------------------------------------------------- 
|                                                                             |
|           W    W    AA    RRRRR   N    N  II  N    N   GGGG   !!!           |
|           W    W   A  A   R    R  NN   N  II  NN   N  G    G  !!!           |
|           W    W  A    A  R    R  N N  N  II  N N  N  G       !!!           |
|           W WW W  AAAAAA  RRRRR   N  N N  II  N  N N  G  GGG   !            |
|           WW  WW  A    A  R   R   N   NN  II  N   NN  G    G                |
|           W    W  A    A  R    R  N    N  II  N    N   GGGG   !!!           |
|                                                                             |
|      VASP found  21165 degrees of freedom                                   |
|      the temperature will equal 2*E(kin)/ (degrees of freedom)              |
|      this differs from previous releases, where T was 2*E(kin)/(3 NIONS).   |
|      The new definition is more consistent                                  |
|                                                                             |
 ----------------------------------------------------------------------------- 

 Random init:       19844       27415
 Random init:       19844       27415
 alloco spazio per displ
 Random init:       19844       27415
 Random init:       19844       27415
 Random init:       19844       27415
 Random init:       19844       27415
       10 T=  3436. E= -.29155684E+05 F= -.32289490E+05 EK= 0.31338E+04 SP= 0.00E+00 SK= 0.00E+00
       20 T=  3285. E= -.29155429E+05 F= -.32151035E+05 EK= 0.29956E+04 SP= 0.00E+00 SK= 0.00E+00
       30 T=  3312. E= -.29155594E+05 F= -.32175587E+05 EK= 0.30200E+04 SP= 0.00E+00 SK= 0.00E+00
       40 T=  3326. E= -.29155573E+05 F= -.32188802E+05 EK= 0.30332E+04 SP= 0.00E+00 SK= 0.00E+00
       50 T=  3310. E= -.29155548E+05 F= -.32173901E+05 EK= 0.30184E+04 SP= 0.00E+00 SK= 0.00E+00
       60 T=  3318. E= -.29155554E+05 F= -.32181529E+05 EK= 0.30260E+04 SP= 0.00E+00 SK= 0.00E+00
       70 T=  3344. E= -.29155574E+05 F= -.32205195E+05 EK= 0.30496E+04 SP= 0.00E+00 SK= 0.00E+00
       80 T=  3330. E= -.29155613E+05 F= -.32192320E+05 EK= 0.30367E+04 SP= 0.00E+00 SK= 0.00E+00
       90 T=  3287. E= -.29155450E+05 F= -.32152954E+05 EK= 0.29975E+04 SP= 0.00E+00 SK= 0.00E+00
      100 T=  3328. E= -.29155574E+05 F= -.32190440E+05 EK= 0.30349E+04 SP= 0.00E+00 SK= 0.00E+00
      110 T=  3329. E= -.29155511E+05 F= -.32191044E+05 EK= 0.30355E+04 SP= 0.00E+00 SK= 0.00E+00
      120 T=  3331. E= -.29155459E+05 F= -.32192729E+05 EK= 0.30373E+04 SP= 0.00E+00 SK= 0.00E+00
      130 T=  3357. E= -.29155610E+05 F= -.32216630E+05 EK= 0.30610E+04 SP= 0.00E+00 SK= 0.00E+00
      140 T=  3313. E= -.29155472E+05 F= -.32176997E+05 EK= 0.30215E+04 SP= 0.00E+00 SK= 0.00E+00
      150 T=  3326. E= -.29155607E+05 F= -.32188847E+05 EK= 0.30332E+04 SP= 0.00E+00 SK= 0.00E+00
      160 T=  3335. E= -.29155607E+05 F= -.32196920E+05 EK= 0.30413E+04 SP= 0.00E+00 SK= 0.00E+00
      170 T=  3345. E= -.29155700E+05 F= -.32206001E+05 EK= 0.30503E+04 SP= 0.00E+00 SK= 0.00E+00
      180 T=  3295. E= -.29155581E+05 F= -.32160833E+05 EK= 0.30053E+04 SP= 0.00E+00 SK= 0.00E+00
      190 T=  3351. E= -.29155715E+05 F= -.32212054E+05 EK= 0.30563E+04 SP= 0.00E+00 SK= 0.00E+00
      200 T=  3370. E= -.29155808E+05 F= -.32229384E+05 EK= 0.30736E+04 SP= 0.00E+00 SK= 0.00E+00
      210 T=  3316. E= -.29155726E+05 F= -.32179702E+05 EK= 0.30240E+04 SP= 0.00E+00 SK= 0.00E+00
      220 T=  3314. E= -.29155756E+05 F= -.32177510E+05 EK= 0.30218E+04 SP= 0.00E+00 SK= 0.00E+00
      230 T=  3324. E= -.29155783E+05 F= -.32187123E+05 EK= 0.30313E+04 SP= 0.00E+00 SK= 0.00E+00
      240 T=  3292. E= -.29155704E+05 F= -.32158010E+05 EK= 0.30023E+04 SP= 0.00E+00 SK= 0.00E+00
      250 T=  3296. E= -.29155687E+05 F= -.32161035E+05 EK= 0.30053E+04 SP= 0.00E+00 SK= 0.00E+00
      260 T=  3337. E= -.29155784E+05 F= -.32199030E+05 EK= 0.30432E+04 SP= 0.00E+00 SK= 0.00E+00
      270 T=  3292. E= -.29155552E+05 F= -.32157901E+05 EK= 0.30023E+04 SP= 0.00E+00 SK= 0.00E+00
      280 T=  3332. E= -.29155676E+05 F= -.32193927E+05 EK= 0.30383E+04 SP= 0.00E+00 SK= 0.00E+00
      290 T=  3343. E= -.29155700E+05 F= -.32203924E+05 EK= 0.30482E+04 SP= 0.00E+00 SK= 0.00E+00
      300 T=  3289. E= -.29155539E+05 F= -.32154542E+05 EK= 0.29990E+04 SP= 0.00E+00 SK= 0.00E+00
      310 T=  3327. E= -.29155675E+05 F= -.32189787E+05 EK= 0.30341E+04 SP= 0.00E+00 SK= 0.00E+00
      320 T=  3342. E= -.29155578E+05 F= -.32203444E+05 EK= 0.30479E+04 SP= 0.00E+00 SK= 0.00E+00
      330 T=  3344. E= -.29155666E+05 F= -.32205253E+05 EK= 0.30496E+04 SP= 0.00E+00 SK= 0.00E+00
      340 T=  3297. E= -.29155551E+05 F= -.32162568E+05 EK= 0.30070E+04 SP= 0.00E+00 SK= 0.00E+00
      350 T=  3330. E= -.29155626E+05 F= -.32192244E+05 EK= 0.30366E+04 SP= 0.00E+00 SK= 0.00E+00
      360 T=  3360. E= -.29155650E+05 F= -.32219297E+05 EK= 0.30636E+04 SP= 0.00E+00 SK= 0.00E+00
      370 T=  3314. E= -.29155573E+05 F= -.32177937E+05 EK= 0.30224E+04 SP= 0.00E+00 SK= 0.00E+00
      380 T=  3332. E= -.29155620E+05 F= -.32194191E+05 EK= 0.30386E+04 SP= 0.00E+00 SK= 0.00E+00
      390 T=  3384. E= -.29155725E+05 F= -.32241402E+05 EK= 0.30857E+04 SP= 0.00E+00 SK= 0.00E+00
      400 T=  3344. E= -.29155708E+05 F= -.32204767E+05 EK= 0.30491E+04 SP= 0.00E+00 SK= 0.00E+00
      410 T=  3320. E= -.29155666E+05 F= -.32183610E+05 EK= 0.30279E+04 SP= 0.00E+00 SK= 0.00E+00
      420 T=  3337. E= -.29155812E+05 F= -.32198997E+05 EK= 0.30432E+04 SP= 0.00E+00 SK= 0.00E+00
      430 T=  3298. E= -.29155621E+05 F= -.32163061E+05 EK= 0.30074E+04 SP= 0.00E+00 SK= 0.00E+00
      440 T=  3367. E= -.29155755E+05 F= -.32226145E+05 EK= 0.30704E+04 SP= 0.00E+00 SK= 0.00E+00
      450 T=  3372. E= -.29155734E+05 F= -.32230899E+05 EK= 0.30752E+04 SP= 0.00E+00 SK= 0.00E+00
      460 T=  3355. E= -.29155771E+05 F= -.32215210E+05 EK= 0.30594E+04 SP= 0.00E+00 SK= 0.00E+00
      470 T=  3314. E= -.29155705E+05 F= -.32178033E+05 EK= 0.30223E+04 SP= 0.00E+00 SK= 0.00E+00
      480 T=  3313. E= -.29155736E+05 F= -.32177209E+05 EK= 0.30215E+04 SP= 0.00E+00 SK= 0.00E+00
      490 T=  3312. E= -.29155683E+05 F= -.32176134E+05 EK= 0.30205E+04 SP= 0.00E+00 SK= 0.00E+00
      500 T=  3306. E= -.29155639E+05 F= -.32170756E+05 EK= 0.30151E+04 SP= 0.00E+00 SK= 0.00E+00
      510 T=  3313. E= -.29155597E+05 F= -.32177096E+05 EK= 0.30215E+04 SP= 0.00E+00 SK= 0.00E+00
      520 T=  3318. E= -.29155576E+05 F= -.32181231E+05 EK= 0.30257E+04 SP= 0.00E+00 SK= 0.00E+00
      530 T=  3320. E= -.29155566E+05 F= -.32182815E+05 EK= 0.30272E+04 SP= 0.00E+00 SK= 0.00E+00
      540 T=  3311. E= -.29155576E+05 F= -.32174666E+05 EK= 0.30191E+04 SP= 0.00E+00 SK= 0.00E+00
      550 T=  3342. E= -.29155692E+05 F= -.32203638E+05 EK= 0.30479E+04 SP= 0.00E+00 SK= 0.00E+00
      560 T=  3319. E= -.29155617E+05 F= -.32182268E+05 EK= 0.30267E+04 SP= 0.00E+00 SK= 0.00E+00
      570 T=  3324. E= -.29155555E+05 F= -.32186980E+05 EK= 0.30314E+04 SP= 0.00E+00 SK= 0.00E+00
      580 T=  3379. E= -.29155727E+05 F= -.32237183E+05 EK= 0.30815E+04 SP= 0.00E+00 SK= 0.00E+00
      590 T=  3315. E= -.29155605E+05 F= -.32179112E+05 EK= 0.30235E+04 SP= 0.00E+00 SK= 0.00E+00
      600 T=  3284. E= -.29155626E+05 F= -.32150059E+05 EK= 0.29944E+04 SP= 0.00E+00 SK= 0.00E+00
      610 T=  3319. E= -.29155604E+05 F= -.32182008E+05 EK= 0.30264E+04 SP= 0.00E+00 SK= 0.00E+00
      620 T=  3346. E= -.29155685E+05 F= -.32207115E+05 EK= 0.30514E+04 SP= 0.00E+00 SK= 0.00E+00
      630 T=  3323. E= -.29155610E+05 F= -.32186275E+05 EK= 0.30307E+04 SP= 0.00E+00 SK= 0.00E+00
      640 T=  3350. E= -.29155703E+05 F= -.32210510E+05 EK= 0.30548E+04 SP= 0.00E+00 SK= 0.00E+00
      650 T=  3329. E= -.29155629E+05 F= -.32191157E+05 EK= 0.30355E+04 SP= 0.00E+00 SK= 0.00E+00
      660 T=  3339. E= -.29155699E+05 F= -.32200229E+05 EK= 0.30445E+04 SP= 0.00E+00 SK= 0.00E+00
      670 T=  3344. E= -.29155792E+05 F= -.32204993E+05 EK= 0.30492E+04 SP= 0.00E+00 SK= 0.00E+00
      680 T=  3283. E= -.29155746E+05 F= -.32149193E+05 EK= 0.29934E+04 SP= 0.00E+00 SK= 0.00E+00
      690 T=  3276. E= -.29155787E+05 F= -.32143203E+05 EK= 0.29874E+04 SP= 0.00E+00 SK= 0.00E+00
      700 T=  3317. E= -.29155832E+05 F= -.32180753E+05 EK= 0.30249E+04 SP= 0.00E+00 SK= 0.00E+00
      710 T=  3318. E= -.29155752E+05 F= -.32181271E+05 EK= 0.30255E+04 SP= 0.00E+00 SK= 0.00E+00
      720 T=  3314. E= -.29155779E+05 F= -.32178229E+05 EK= 0.30225E+04 SP= 0.00E+00 SK= 0.00E+00
      730 T=  3325. E= -.29155778E+05 F= -.32188380E+05 EK= 0.30326E+04 SP= 0.00E+00 SK= 0.00E+00
      740 T=  3367. E= -.29155891E+05 F= -.32226471E+05 EK= 0.30706E+04 SP= 0.00E+00 SK= 0.00E+00
      750 T=  3327. E= -.29155845E+05 F= -.32189598E+05 EK= 0.30338E+04 SP= 0.00E+00 SK= 0.00E+00
      760 T=  3280. E= -.29155765E+05 F= -.32147177E+05 EK= 0.29914E+04 SP= 0.00E+00 SK= 0.00E+00
      770 T=  3312. E= -.29155826E+05 F= -.32176133E+05 EK= 0.30203E+04 SP= 0.00E+00 SK= 0.00E+00
      780 T=  3346. E= -.29155870E+05 F= -.32207541E+05 EK= 0.30517E+04 SP= 0.00E+00 SK= 0.00E+00
      790 T=  3331. E= -.29155842E+05 F= -.32193051E+05 EK= 0.30372E+04 SP= 0.00E+00 SK= 0.00E+00
      800 T=  3330. E= -.29155805E+05 F= -.32192106E+05 EK= 0.30363E+04 SP= 0.00E+00 SK= 0.00E+00
      810 T=  3371. E= -.29155890E+05 F= -.32230442E+05 EK= 0.30746E+04 SP= 0.00E+00 SK= 0.00E+00
      820 T=  3339. E= -.29155784E+05 F= -.32200576E+05 EK= 0.30448E+04 SP= 0.00E+00 SK= 0.00E+00
      830 T=  3335. E= -.29155818E+05 F= -.32196926E+05 EK= 0.30411E+04 SP= 0.00E+00 SK= 0.00E+00
      840 T=  3349. E= -.29155925E+05 F= -.32209559E+05 EK= 0.30536E+04 SP= 0.00E+00 SK= 0.00E+00
      850 T=  3276. E= -.29155667E+05 F= -.32143363E+05 EK= 0.29877E+04 SP= 0.00E+00 SK= 0.00E+00
      860 T=  3303. E= -.29155759E+05 F= -.32167545E+05 EK= 0.30118E+04 SP= 0.00E+00 SK= 0.00E+00
      870 T=  3336. E= -.29155766E+05 F= -.32197720E+05 EK= 0.30420E+04 SP= 0.00E+00 SK= 0.00E+00
      880 T=  3329. E= -.29155713E+05 F= -.32191590E+05 EK= 0.30359E+04 SP= 0.00E+00 SK= 0.00E+00
      890 T=  3349. E= -.29155755E+05 F= -.32209664E+05 EK= 0.30539E+04 SP= 0.00E+00 SK= 0.00E+00
      900 T=  3353. E= -.29155784E+05 F= -.32213353E+05 EK= 0.30576E+04 SP= 0.00E+00 SK= 0.00E+00
      910 T=  3311. E= -.29155618E+05 F= -.32174864E+05 EK= 0.30192E+04 SP= 0.00E+00 SK= 0.00E+00
      920 T=  3347. E= -.29155718E+05 F= -.32208033E+05 EK= 0.30523E+04 SP= 0.00E+00 SK= 0.00E+00
      930 T=  3343. E= -.29155744E+05 F= -.32204126E+05 EK= 0.30484E+04 SP= 0.00E+00 SK= 0.00E+00
      940 T=  3326. E= -.29155681E+05 F= -.32188431E+05 EK= 0.30327E+04 SP= 0.00E+00 SK= 0.00E+00
      950 T=  3346. E= -.29155787E+05 F= -.32207086E+05 EK= 0.30513E+04 SP= 0.00E+00 SK= 0.00E+00
      960 T=  3312. E= -.29155729E+05 F= -.32175808E+05 EK= 0.30201E+04 SP= 0.00E+00 SK= 0.00E+00
      970 T=  3341. E= -.29155823E+05 F= -.32202938E+05 EK= 0.30471E+04 SP= 0.00E+00 SK= 0.00E+00
      980 T=  3353. E= -.29155848E+05 F= -.32213328E+05 EK= 0.30575E+04 SP= 0.00E+00 SK= 0.00E+00
      990 T=  3351. E= -.29155841E+05 F= -.32211619E+05 EK= 0.30558E+04 SP= 0.00E+00 SK= 0.00E+00
     1000 T=  3352. E= -.29155846E+05 F= -.32212224E+05 EK= 0.30564E+04 SP= 0.00E+00 SK= 0.00E+00
     1010 T=  3328. E= -.29155857E+05 F= -.32190975E+05 EK= 0.30351E+04 SP= 0.00E+00 SK= 0.00E+00
     1020 T=  3315. E= -.29155773E+05 F= -.32178460E+05 EK= 0.30227E+04 SP= 0.00E+00 SK= 0.00E+00
     1030 T=  3333. E= -.29155803E+05 F= -.32195477E+05 EK= 0.30397E+04 SP= 0.00E+00 SK= 0.00E+00
     1040 T=  3324. E= -.29155756E+05 F= -.32186697E+05 EK= 0.30309E+04 SP= 0.00E+00 SK= 0.00E+00
     1050 T=  3341. E= -.29155826E+05 F= -.32203053E+05 EK= 0.30472E+04 SP= 0.00E+00 SK= 0.00E+00
     1060 T=  3302. E= -.29155679E+05 F= -.32167325E+05 EK= 0.30116E+04 SP= 0.00E+00 SK= 0.00E+00
     1070 T=  3309. E= -.29155772E+05 F= -.32172912E+05 EK= 0.30171E+04 SP= 0.00E+00 SK= 0.00E+00
     1080 T=  3315. E= -.29155755E+05 F= -.32178796E+05 EK= 0.30230E+04 SP= 0.00E+00 SK= 0.00E+00
     1090 T=  3337. E= -.29155784E+05 F= -.32199159E+05 EK= 0.30434E+04 SP= 0.00E+00 SK= 0.00E+00
     1100 T=  3305. E= -.29155736E+05 F= -.32169510E+05 EK= 0.30138E+04 SP= 0.00E+00 SK= 0.00E+00
     1110 T=  3309. E= -.29155751E+05 F= -.32173661E+05 EK= 0.30179E+04 SP= 0.00E+00 SK= 0.00E+00
     1120 T=  3320. E= -.29155751E+05 F= -.32183609E+05 EK= 0.30279E+04 SP= 0.00E+00 SK= 0.00E+00
     1130 T=  3303. E= -.29155710E+05 F= -.32167572E+05 EK= 0.30119E+04 SP= 0.00E+00 SK= 0.00E+00
     1140 T=  3324. E= -.29155782E+05 F= -.32186875E+05 EK= 0.30311E+04 SP= 0.00E+00 SK= 0.00E+00
     1150 T=  3337. E= -.29155857E+05 F= -.32199203E+05 EK= 0.30433E+04 SP= 0.00E+00 SK= 0.00E+00
     1160 T=  3307. E= -.29155805E+05 F= -.32171522E+05 EK= 0.30157E+04 SP= 0.00E+00 SK= 0.00E+00
     1170 T=  3323. E= -.29155782E+05 F= -.32186181E+05 EK= 0.30304E+04 SP= 0.00E+00 SK= 0.00E+00
     1180 T=  3360. E= -.29155906E+05 F= -.32220281E+05 EK= 0.30644E+04 SP= 0.00E+00 SK= 0.00E+00
     1190 T=  3307. E= -.29155786E+05 F= -.32171250E+05 EK= 0.30155E+04 SP= 0.00E+00 SK= 0.00E+00
     1200 T=  3302. E= -.29155877E+05 F= -.32167276E+05 EK= 0.30114E+04 SP= 0.00E+00 SK= 0.00E+00
     1210 T=  3313. E= -.29155913E+05 F= -.32176762E+05 EK= 0.30208E+04 SP= 0.00E+00 SK= 0.00E+00
     1220 T=  3315. E= -.29155899E+05 F= -.32179213E+05 EK= 0.30233E+04 SP= 0.00E+00 SK= 0.00E+00
     1230 T=  3318. E= -.29155898E+05 F= -.32182050E+05 EK= 0.30262E+04 SP= 0.00E+00 SK= 0.00E+00
     1240 T=  3349. E= -.29155966E+05 F= -.32210208E+05 EK= 0.30542E+04 SP= 0.00E+00 SK= 0.00E+00
     1250 T=  3340. E= -.29155928E+05 F= -.32201379E+05 EK= 0.30455E+04 SP= 0.00E+00 SK= 0.00E+00
     1260 T=  3343. E= -.29155981E+05 F= -.32204839E+05 EK= 0.30489E+04 SP= 0.00E+00 SK= 0.00E+00
     1270 T=  3321. E= -.29155865E+05 F= -.32184534E+05 EK= 0.30287E+04 SP= 0.00E+00 SK= 0.00E+00
     1280 T=  3335. E= -.29155936E+05 F= -.32197165E+05 EK= 0.30412E+04 SP= 0.00E+00 SK= 0.00E+00
     1290 T=  3305. E= -.29155903E+05 F= -.32169626E+05 EK= 0.30137E+04 SP= 0.00E+00 SK= 0.00E+00
     1300 T=  3292. E= -.29155866E+05 F= -.32158119E+05 EK= 0.30023E+04 SP= 0.00E+00 SK= 0.00E+00
     1310 T=  3330. E= -.29155900E+05 F= -.32192374E+05 EK= 0.30365E+04 SP= 0.00E+00 SK= 0.00E+00
     1320 T=  3342. E= -.29155909E+05 F= -.32203240E+05 EK= 0.30473E+04 SP= 0.00E+00 SK= 0.00E+00
     1330 T=  3308. E= -.29155870E+05 F= -.32172905E+05 EK= 0.30170E+04 SP= 0.00E+00 SK= 0.00E+00
     1340 T=  3308. E= -.29155900E+05 F= -.32172585E+05 EK= 0.30167E+04 SP= 0.00E+00 SK= 0.00E+00
     1350 T=  3352. E= -.29155991E+05 F= -.32212709E+05 EK= 0.30567E+04 SP= 0.00E+00 SK= 0.00E+00
     1360 T=  3323. E= -.29155898E+05 F= -.32186323E+05 EK= 0.30304E+04 SP= 0.00E+00 SK= 0.00E+00
     1370 T=  3329. E= -.29155983E+05 F= -.32192169E+05 EK= 0.30362E+04 SP= 0.00E+00 SK= 0.00E+00
     1380 T=  3352. E= -.29155964E+05 F= -.32212566E+05 EK= 0.30566E+04 SP= 0.00E+00 SK= 0.00E+00
     1390 T=  3314. E= -.29155965E+05 F= -.32177694E+05 EK= 0.30217E+04 SP= 0.00E+00 SK= 0.00E+00
     1400 T=  3260. E= -.29155878E+05 F= -.32128448E+05 EK= 0.29726E+04 SP= 0.00E+00 SK= 0.00E+00
     1410 T=  3323. E= -.29155918E+05 F= -.32186645E+05 EK= 0.30307E+04 SP= 0.00E+00 SK= 0.00E+00
     1420 T=  3363. E= -.29155882E+05 F= -.32222753E+05 EK= 0.30669E+04 SP= 0.00E+00 SK= 0.00E+00
     1430 T=  3370. E= -.29155973E+05 F= -.32229494E+05 EK= 0.30735E+04 SP= 0.00E+00 SK= 0.00E+00
     1440 T=  3315. E= -.29155896E+05 F= -.32179411E+05 EK= 0.30235E+04 SP= 0.00E+00 SK= 0.00E+00
     1450 T=  3322. E= -.29156012E+05 F= -.32185151E+05 EK= 0.30291E+04 SP= 0.00E+00 SK= 0.00E+00
     1460 T=  3294. E= -.29155888E+05 F= -.32159803E+05 EK= 0.30039E+04 SP= 0.00E+00 SK= 0.00E+00
     1470 T=  3323. E= -.29155943E+05 F= -.32186241E+05 EK= 0.30303E+04 SP= 0.00E+00 SK= 0.00E+00
     1480 T=  3348. E= -.29155942E+05 F= -.32209435E+05 EK= 0.30535E+04 SP= 0.00E+00 SK= 0.00E+00
     1490 T=  3358. E= -.29155946E+05 F= -.32217943E+05 EK= 0.30620E+04 SP= 0.00E+00 SK= 0.00E+00
     1500 T=  3350. E= -.29155973E+05 F= -.32211047E+05 EK= 0.30551E+04 SP= 0.00E+00 SK= 0.00E+00
     1510 T=  3310. E= -.29155875E+05 F= -.32174834E+05 EK= 0.30190E+04 SP= 0.00E+00 SK= 0.00E+00
     1520 T=  3342. E= -.29155888E+05 F= -.32203363E+05 EK= 0.30475E+04 SP= 0.00E+00 SK= 0.00E+00
     1530 T=  3352. E= -.29155886E+05 F= -.32212844E+05 EK= 0.30570E+04 SP= 0.00E+00 SK= 0.00E+00
     1540 T=  3312. E= -.29155764E+05 F= -.32176132E+05 EK= 0.30204E+04 SP= 0.00E+00 SK= 0.00E+00
     1550 T=  3319. E= -.29155833E+05 F= -.32182704E+05 EK= 0.30269E+04 SP= 0.00E+00 SK= 0.00E+00
     1560 T=  3309. E= -.29155797E+05 F= -.32173404E+05 EK= 0.30176E+04 SP= 0.00E+00 SK= 0.00E+00
     1570 T=  3311. E= -.29155783E+05 F= -.32175392E+05 EK= 0.30196E+04 SP= 0.00E+00 SK= 0.00E+00
     1580 T=  3347. E= -.29155859E+05 F= -.32208097E+05 EK= 0.30522E+04 SP= 0.00E+00 SK= 0.00E+00
     1590 T=  3341. E= -.29155757E+05 F= -.32202746E+05 EK= 0.30470E+04 SP= 0.00E+00 SK= 0.00E+00
     1600 T=  3329. E= -.29155754E+05 F= -.32191149E+05 EK= 0.30354E+04 SP= 0.00E+00 SK= 0.00E+00
     1610 T=  3322. E= -.29155758E+05 F= -.32184972E+05 EK= 0.30292E+04 SP= 0.00E+00 SK= 0.00E+00
     1620 T=  3313. E= -.29155796E+05 F= -.32177302E+05 EK= 0.30215E+04 SP= 0.00E+00 SK= 0.00E+00
     1630 T=  3313. E= -.29155836E+05 F= -.32177043E+05 EK= 0.30212E+04 SP= 0.00E+00 SK= 0.00E+00
     1640 T=  3338. E= -.29155832E+05 F= -.32199677E+05 EK= 0.30438E+04 SP= 0.00E+00 SK= 0.00E+00
     1650 T=  3361. E= -.29155832E+05 F= -.32220670E+05 EK= 0.30648E+04 SP= 0.00E+00 SK= 0.00E+00
     1660 T=  3324. E= -.29155766E+05 F= -.32187116E+05 EK= 0.30314E+04 SP= 0.00E+00 SK= 0.00E+00
     1670 T=  3310. E= -.29155721E+05 F= -.32174294E+05 EK= 0.30186E+04 SP= 0.00E+00 SK= 0.00E+00
     1680 T=  3350. E= -.29155832E+05 F= -.32210697E+05 EK= 0.30549E+04 SP= 0.00E+00 SK= 0.00E+00
     1690 T=  3340. E= -.29155683E+05 F= -.32201906E+05 EK= 0.30462E+04 SP= 0.00E+00 SK= 0.00E+00
     1700 T=  3383. E= -.29155834E+05 F= -.32240541E+05 EK= 0.30847E+04 SP= 0.00E+00 SK= 0.00E+00
     1710 T=  3346. E= -.29155768E+05 F= -.32206802E+05 EK= 0.30510E+04 SP= 0.00E+00 SK= 0.00E+00
     1720 T=  3335. E= -.29155868E+05 F= -.32197195E+05 EK= 0.30413E+04 SP= 0.00E+00 SK= 0.00E+00
     1730 T=  3327. E= -.29155852E+05 F= -.32190140E+05 EK= 0.30343E+04 SP= 0.00E+00 SK= 0.00E+00
     1740 T=  3310. E= -.29155881E+05 F= -.32174449E+05 EK= 0.30186E+04 SP= 0.00E+00 SK= 0.00E+00
     1750 T=  3295. E= -.29155918E+05 F= -.32160659E+05 EK= 0.30047E+04 SP= 0.00E+00 SK= 0.00E+00
     1760 T=  3319. E= -.29155982E+05 F= -.32182371E+05 EK= 0.30264E+04 SP= 0.00E+00 SK= 0.00E+00
     1770 T=  3367. E= -.29156076E+05 F= -.32226661E+05 EK= 0.30706E+04 SP= 0.00E+00 SK= 0.00E+00
     1780 T=  3333. E= -.29155982E+05 F= -.32195551E+05 EK= 0.30396E+04 SP= 0.00E+00 SK= 0.00E+00
     1790 T=  3302. E= -.29155963E+05 F= -.32166910E+05 EK= 0.30109E+04 SP= 0.00E+00 SK= 0.00E+00
     1800 T=  3329. E= -.29156009E+05 F= -.32191948E+05 EK= 0.30359E+04 SP= 0.00E+00 SK= 0.00E+00
     1810 T=  3354. E= -.29156058E+05 F= -.32214533E+05 EK= 0.30585E+04 SP= 0.00E+00 SK= 0.00E+00
     1820 T=  3331. E= -.29156014E+05 F= -.32193913E+05 EK= 0.30379E+04 SP= 0.00E+00 SK= 0.00E+00
     1830 T=  3340. E= -.29156022E+05 F= -.32202264E+05 EK= 0.30462E+04 SP= 0.00E+00 SK= 0.00E+00
     1840 T=  3333. E= -.29156042E+05 F= -.32195080E+05 EK= 0.30390E+04 SP= 0.00E+00 SK= 0.00E+00
     1850 T=  3295. E= -.29155996E+05 F= -.32161075E+05 EK= 0.30051E+04 SP= 0.00E+00 SK= 0.00E+00
     1860 T=  3316. E= -.29156015E+05 F= -.32179949E+05 EK= 0.30239E+04 SP= 0.00E+00 SK= 0.00E+00
     1870 T=  3325. E= -.29156003E+05 F= -.32188394E+05 EK= 0.30324E+04 SP= 0.00E+00 SK= 0.00E+00
     1880 T=  3307. E= -.29155974E+05 F= -.32171699E+05 EK= 0.30157E+04 SP= 0.00E+00 SK= 0.00E+00
     1890 T=  3343. E= -.29156027E+05 F= -.32204570E+05 EK= 0.30485E+04 SP= 0.00E+00 SK= 0.00E+00
     1900 T=  3363. E= -.29156084E+05 F= -.32223023E+05 EK= 0.30669E+04 SP= 0.00E+00 SK= 0.00E+00
     1910 T=  3300. E= -.29155863E+05 F= -.32165693E+05 EK= 0.30098E+04 SP= 0.00E+00 SK= 0.00E+00
     1920 T=  3347. E= -.29155955E+05 F= -.32207763E+05 EK= 0.30518E+04 SP= 0.00E+00 SK= 0.00E+00
     1930 T=  3357. E= -.29156009E+05 F= -.32217742E+05 EK= 0.30617E+04 SP= 0.00E+00 SK= 0.00E+00
     1940 T=  3308. E= -.29155972E+05 F= -.32172860E+05 EK= 0.30169E+04 SP= 0.00E+00 SK= 0.00E+00
     1950 T=  3312. E= -.29155979E+05 F= -.32176112E+05 EK= 0.30201E+04 SP= 0.00E+00 SK= 0.00E+00
     1960 T=  3317. E= -.29155988E+05 F= -.32180447E+05 EK= 0.30245E+04 SP= 0.00E+00 SK= 0.00E+00
     1970 T=  3324. E= -.29156087E+05 F= -.32187399E+05 EK= 0.30313E+04 SP= 0.00E+00 SK= 0.00E+00
     1980 T=  3322. E= -.29156020E+05 F= -.32185491E+05 EK= 0.30295E+04 SP= 0.00E+00 SK= 0.00E+00
     1990 T=  3340. E= -.29156095E+05 F= -.32201702E+05 EK= 0.30456E+04 SP= 0.00E+00 SK= 0.00E+00
At line 1940 of file md.f90
Fortran runtime error: Unit number is negative and unit was not already opened with OPEN(NEWUNIT=...)

Error termination. Backtrace:
At line 1940 of file md.f90
Fortran runtime error: Unit number is negative and unit was not already opened with OPEN(NEWUNIT=...)

Error termination. Backtrace:
At line 1940 of file md.f90
Fortran runtime error: Unit number is negative and unit was not already opened with OPEN(NEWUNIT=...)

Error termination. Backtrace:
At line 1940 of file md.f90
Fortran runtime error: Unit number is negative and unit was not already opened with OPEN(NEWUNIT=...)

Error termination. Backtrace:
At line 1940 of file md.f90
Fortran runtime error: Unit number is negative and unit was not already opened with OPEN(NEWUNIT=...)

Error termination. Backtrace:
     2000 T=  3325. E= -.29156023E+05 F= -.32188604E+05 EK= 0.30326E+04 SP= 0.00E+00 SK= 0.00E+00
Rc and Rl:   5.500000  7.321000

Average number of steps between two list updates:  21.05
Average number of atoms in the shell:     0.01
#0  0x7f0de0ae1d11 in ???
#1  0x7f0de0ae2859 in ???
#2  0x7f0de0ae353f in ???
#3  0x557d05e700bc in ???
#4  0x557d05e6b92e in ???
#5  0x7f0de0778082 in __libc_start_main
	at ../csu/libc-start.c:308
#6  0x557d05e6b96d in ???
#7  0xffffffffffffffff in ???
#0  0x7f2392ef6d11 in ???
#1  0x7f2392ef7859 in ???
#2  0x7f2392ef853f in ???
#3  0x556e12f310bc in ???
#4  0x556e12f2c92e in ???
#5  0x7f2392b8d082 in __libc_start_main
	at ../csu/libc-start.c:308
#6  0x556e12f2c96d in ???
#7  0xffffffffffffffff in ???
#0  0x7f99bd916d11 in ???
#1  0x7f99bd917859 in ???
#2  0x7f99bd91853f in ???
#3  0x5624319360bc in ???
#4  0x56243193192e in ???
#0  0x7f4fc25fdd11 in ???
#1  0x7f4fc25fe859 in ???
#2  0x7f4fc25ff53f in ???
#3  0x55fd0a2860bc in ???
#4  0x55fd0a28192e in ???
#5  0x7f4fc2294082 in __libc_start_main
	at ../csu/libc-start.c:308
#6  0x55fd0a28196d in ???
#7  0xffffffffffffffff in ???
#0  0x7f6c54cc4d11 in ???
#1  0x7f6c54cc5859 in ???
#2  0x7f6c54cc653f in ???
#3  0x5637f6d060bc in ???
#4  0x5637f6d0192e in ???
#5  0x7f6c5495b082 in __libc_start_main
	at ../csu/libc-start.c:308
#6  0x5637f6d0196d in ???
#7  0xffffffffffffffff in ???
