 running on    6 nodes
 distr:  one band on    1 nodes,    6 groups
 md.x 0.99
 POSCAR found :  1 types and     7056 ions
Rc and Rl:   5.500000  7.321000
 TIPO = eam     
 TIPO1 = uknown p
 Using EAM

 EAM parameters: 
 C  =   9.9634  EPS  = 0.2048  A  = 3.5678  M  = 3.127  N  =  6.366  R1 =   5.500000


 ----------------------------------------------------------------------------- 
|                                                                             |
|           W    W    AA    RRRRR   N    N  II  N    N   GGGG   !!!           |
|           W    W   A  A   R    R  NN   N  II  NN   N  G    G  !!!           |
|           W    W  A    A  R    R  N N  N  II  N N  N  G       !!!           |
|           W WW W  AAAAAA  RRRRR   N  N N  II  N  N N  G  GGG   !            |
|           WW  WW  A    A  R   R   N   NN  II  N   NN  G    G                |
|           W    W  A    A  R    R  N    N  II  N    N   GGGG   !!!           |
|                                                                             |
|      VASP found  21165 degrees of freedom                                   |
|      the temperature will equal 2*E(kin)/ (degrees of freedom)              |
|      this differs from previous releases, where T was 2*E(kin)/(3 NIONS).   |
|      The new definition is more consistent                                  |
|                                                                             |
 ----------------------------------------------------------------------------- 

 Random init:       19566       27137
 Random init:       19566       27137
 Random init:       19566       27137
 Random init:       19566       27137
 Random init:       19566       27137
 Random init:       19566       27137
 alloco spazio per displ
       10 T=  4443. E= -.27255030E+05 F= -.31306892E+05 EK= 0.40519E+04 SP= 0.00E+00 SK= 0.00E+00
       20 T=  4294. E= -.27254723E+05 F= -.31170854E+05 EK= 0.39161E+04 SP= 0.00E+00 SK= 0.00E+00
       30 T=  4264. E= -.27254753E+05 F= -.31143194E+05 EK= 0.38884E+04 SP= 0.00E+00 SK= 0.00E+00
       40 T=  4312. E= -.27254884E+05 F= -.31186960E+05 EK= 0.39321E+04 SP= 0.00E+00 SK= 0.00E+00
       50 T=  4285. E= -.27254884E+05 F= -.31162168E+05 EK= 0.39073E+04 SP= 0.00E+00 SK= 0.00E+00
       60 T=  4217. E= -.27254721E+05 F= -.31100139E+05 EK= 0.38454E+04 SP= 0.00E+00 SK= 0.00E+00
       70 T=  4247. E= -.27254836E+05 F= -.31128264E+05 EK= 0.38734E+04 SP= 0.00E+00 SK= 0.00E+00
       80 T=  4262. E= -.27254790E+05 F= -.31141314E+05 EK= 0.38865E+04 SP= 0.00E+00 SK= 0.00E+00
       90 T=  4282. E= -.27254737E+05 F= -.31159449E+05 EK= 0.39047E+04 SP= 0.00E+00 SK= 0.00E+00
      100 T=  4282. E= -.27254729E+05 F= -.31159210E+05 EK= 0.39045E+04 SP= 0.00E+00 SK= 0.00E+00
      110 T=  4251. E= -.27254794E+05 F= -.31131715E+05 EK= 0.38769E+04 SP= 0.00E+00 SK= 0.00E+00
      120 T=  4230. E= -.27254745E+05 F= -.31111859E+05 EK= 0.38571E+04 SP= 0.00E+00 SK= 0.00E+00
      130 T=  4218. E= -.27254717E+05 F= -.31101433E+05 EK= 0.38467E+04 SP= 0.00E+00 SK= 0.00E+00
      140 T=  4214. E= -.27254732E+05 F= -.31097877E+05 EK= 0.38431E+04 SP= 0.00E+00 SK= 0.00E+00
      150 T=  4199. E= -.27254598E+05 F= -.31084255E+05 EK= 0.38297E+04 SP= 0.00E+00 SK= 0.00E+00
      160 T=  4299. E= -.27254731E+05 F= -.31174967E+05 EK= 0.39202E+04 SP= 0.00E+00 SK= 0.00E+00
      170 T=  4302. E= -.27254738E+05 F= -.31177555E+05 EK= 0.39228E+04 SP= 0.00E+00 SK= 0.00E+00
      180 T=  4163. E= -.27254489E+05 F= -.31050507E+05 EK= 0.37960E+04 SP= 0.00E+00 SK= 0.00E+00
      190 T=  4189. E= -.27254659E+05 F= -.31074554E+05 EK= 0.38199E+04 SP= 0.00E+00 SK= 0.00E+00
      200 T=  4226. E= -.27254699E+05 F= -.31108353E+05 EK= 0.38537E+04 SP= 0.00E+00 SK= 0.00E+00
      210 T=  4217. E= -.27254633E+05 F= -.31100512E+05 EK= 0.38459E+04 SP= 0.00E+00 SK= 0.00E+00
      220 T=  4230. E= -.27254726E+05 F= -.31112261E+05 EK= 0.38575E+04 SP= 0.00E+00 SK= 0.00E+00
      230 T=  4240. E= -.27254716E+05 F= -.31120925E+05 EK= 0.38662E+04 SP= 0.00E+00 SK= 0.00E+00
      240 T=  4214. E= -.27254669E+05 F= -.31097909E+05 EK= 0.38432E+04 SP= 0.00E+00 SK= 0.00E+00
      250 T=  4214. E= -.27254746E+05 F= -.31097323E+05 EK= 0.38426E+04 SP= 0.00E+00 SK= 0.00E+00
      260 T=  4249. E= -.27254866E+05 F= -.31129597E+05 EK= 0.38747E+04 SP= 0.00E+00 SK= 0.00E+00
      270 T=  4193. E= -.27254717E+05 F= -.31078685E+05 EK= 0.38240E+04 SP= 0.00E+00 SK= 0.00E+00
      280 T=  4179. E= -.27254743E+05 F= -.31065752E+05 EK= 0.38110E+04 SP= 0.00E+00 SK= 0.00E+00
      290 T=  4201. E= -.27254863E+05 F= -.31086178E+05 EK= 0.38313E+04 SP= 0.00E+00 SK= 0.00E+00
      300 T=  4187. E= -.27254796E+05 F= -.31073034E+05 EK= 0.38182E+04 SP= 0.00E+00 SK= 0.00E+00
      310 T=  4249. E= -.27254853E+05 F= -.31129453E+05 EK= 0.38746E+04 SP= 0.00E+00 SK= 0.00E+00
      320 T=  4260. E= -.27254823E+05 F= -.31139768E+05 EK= 0.38849E+04 SP= 0.00E+00 SK= 0.00E+00
      330 T=  4262. E= -.27254851E+05 F= -.31141687E+05 EK= 0.38868E+04 SP= 0.00E+00 SK= 0.00E+00
      340 T=  4243. E= -.27254785E+05 F= -.31123893E+05 EK= 0.38691E+04 SP= 0.00E+00 SK= 0.00E+00
      350 T=  4207. E= -.27254794E+05 F= -.31091530E+05 EK= 0.38367E+04 SP= 0.00E+00 SK= 0.00E+00
      360 T=  4233. E= -.27254814E+05 F= -.31115378E+05 EK= 0.38606E+04 SP= 0.00E+00 SK= 0.00E+00
      370 T=  4264. E= -.27254778E+05 F= -.31143240E+05 EK= 0.38885E+04 SP= 0.00E+00 SK= 0.00E+00
      380 T=  4258. E= -.27254809E+05 F= -.31138008E+05 EK= 0.38832E+04 SP= 0.00E+00 SK= 0.00E+00
      390 T=  4251. E= -.27254867E+05 F= -.31131799E+05 EK= 0.38769E+04 SP= 0.00E+00 SK= 0.00E+00
      400 T=  4277. E= -.27254914E+05 F= -.31155328E+05 EK= 0.39004E+04 SP= 0.00E+00 SK= 0.00E+00
      410 T=  4290. E= -.27254981E+05 F= -.31166737E+05 EK= 0.39118E+04 SP= 0.00E+00 SK= 0.00E+00
      420 T=  4212. E= -.27254795E+05 F= -.31095801E+05 EK= 0.38410E+04 SP= 0.00E+00 SK= 0.00E+00
      430 T=  4242. E= -.27255081E+05 F= -.31123362E+05 EK= 0.38683E+04 SP= 0.00E+00 SK= 0.00E+00
      440 T=  4187. E= -.27254875E+05 F= -.31073428E+05 EK= 0.38186E+04 SP= 0.00E+00 SK= 0.00E+00
      450 T=  4217. E= -.27255020E+05 F= -.31100859E+05 EK= 0.38458E+04 SP= 0.00E+00 SK= 0.00E+00
      460 T=  4225. E= -.27254928E+05 F= -.31107406E+05 EK= 0.38525E+04 SP= 0.00E+00 SK= 0.00E+00
      470 T=  4229. E= -.27254980E+05 F= -.31111832E+05 EK= 0.38569E+04 SP= 0.00E+00 SK= 0.00E+00
      480 T=  4204. E= -.27254934E+05 F= -.31089074E+05 EK= 0.38341E+04 SP= 0.00E+00 SK= 0.00E+00
      490 T=  4219. E= -.27254837E+05 F= -.31102031E+05 EK= 0.38472E+04 SP= 0.00E+00 SK= 0.00E+00
      500 T=  4302. E= -.27254972E+05 F= -.31177914E+05 EK= 0.39229E+04 SP= 0.00E+00 SK= 0.00E+00
      510 T=  4252. E= -.27254757E+05 F= -.31132244E+05 EK= 0.38775E+04 SP= 0.00E+00 SK= 0.00E+00
      520 T=  4268. E= -.27254791E+05 F= -.31147110E+05 EK= 0.38923E+04 SP= 0.00E+00 SK= 0.00E+00
      530 T=  4295. E= -.27254822E+05 F= -.31171633E+05 EK= 0.39168E+04 SP= 0.00E+00 SK= 0.00E+00
      540 T=  4254. E= -.27254869E+05 F= -.31133836E+05 EK= 0.38790E+04 SP= 0.00E+00 SK= 0.00E+00
      550 T=  4208. E= -.27254722E+05 F= -.31091780E+05 EK= 0.38371E+04 SP= 0.00E+00 SK= 0.00E+00
      560 T=  4251. E= -.27254793E+05 F= -.31131013E+05 EK= 0.38762E+04 SP= 0.00E+00 SK= 0.00E+00
      570 T=  4233. E= -.27254679E+05 F= -.31114588E+05 EK= 0.38599E+04 SP= 0.00E+00 SK= 0.00E+00
      580 T=  4217. E= -.27254713E+05 F= -.31100655E+05 EK= 0.38459E+04 SP= 0.00E+00 SK= 0.00E+00
      590 T=  4234. E= -.27254677E+05 F= -.31115354E+05 EK= 0.38607E+04 SP= 0.00E+00 SK= 0.00E+00
      600 T=  4253. E= -.27254676E+05 F= -.31132906E+05 EK= 0.38782E+04 SP= 0.00E+00 SK= 0.00E+00
      610 T=  4238. E= -.27254631E+05 F= -.31118988E+05 EK= 0.38644E+04 SP= 0.00E+00 SK= 0.00E+00
      620 T=  4239. E= -.27254615E+05 F= -.31120079E+05 EK= 0.38655E+04 SP= 0.00E+00 SK= 0.00E+00
      630 T=  4274. E= -.27254759E+05 F= -.31151938E+05 EK= 0.38972E+04 SP= 0.00E+00 SK= 0.00E+00
      640 T=  4228. E= -.27254565E+05 F= -.31110588E+05 EK= 0.38560E+04 SP= 0.00E+00 SK= 0.00E+00
      650 T=  4219. E= -.27254637E+05 F= -.31102143E+05 EK= 0.38475E+04 SP= 0.00E+00 SK= 0.00E+00
      660 T=  4217. E= -.27254572E+05 F= -.31099865E+05 EK= 0.38453E+04 SP= 0.00E+00 SK= 0.00E+00
      670 T=  4239. E= -.27254652E+05 F= -.31120038E+05 EK= 0.38654E+04 SP= 0.00E+00 SK= 0.00E+00
      680 T=  4226. E= -.27254634E+05 F= -.31108915E+05 EK= 0.38543E+04 SP= 0.00E+00 SK= 0.00E+00
      690 T=  4253. E= -.27254621E+05 F= -.31133213E+05 EK= 0.38786E+04 SP= 0.00E+00 SK= 0.00E+00
      700 T=  4256. E= -.27254717E+05 F= -.31135954E+05 EK= 0.38812E+04 SP= 0.00E+00 SK= 0.00E+00
      710 T=  4176. E= -.27254526E+05 F= -.31062396E+05 EK= 0.38079E+04 SP= 0.00E+00 SK= 0.00E+00
      720 T=  4198. E= -.27254678E+05 F= -.31083057E+05 EK= 0.38284E+04 SP= 0.00E+00 SK= 0.00E+00
      730 T=  4181. E= -.27254509E+05 F= -.31067406E+05 EK= 0.38129E+04 SP= 0.00E+00 SK= 0.00E+00
      740 T=  4247. E= -.27254680E+05 F= -.31127428E+05 EK= 0.38727E+04 SP= 0.00E+00 SK= 0.00E+00
      750 T=  4200. E= -.27254462E+05 F= -.31084919E+05 EK= 0.38305E+04 SP= 0.00E+00 SK= 0.00E+00
      760 T=  4203. E= -.27254541E+05 F= -.31087609E+05 EK= 0.38331E+04 SP= 0.00E+00 SK= 0.00E+00
      770 T=  4225. E= -.27254581E+05 F= -.31107053E+05 EK= 0.38525E+04 SP= 0.00E+00 SK= 0.00E+00
      780 T=  4197. E= -.27254477E+05 F= -.31081973E+05 EK= 0.38275E+04 SP= 0.00E+00 SK= 0.00E+00
      790 T=  4203. E= -.27254463E+05 F= -.31087260E+05 EK= 0.38328E+04 SP= 0.00E+00 SK= 0.00E+00
      800 T=  4183. E= -.27254394E+05 F= -.31069142E+05 EK= 0.38147E+04 SP= 0.00E+00 SK= 0.00E+00
      810 T=  4203. E= -.27254451E+05 F= -.31087001E+05 EK= 0.38326E+04 SP= 0.00E+00 SK= 0.00E+00
      820 T=  4228. E= -.27254326E+05 F= -.31109559E+05 EK= 0.38552E+04 SP= 0.00E+00 SK= 0.00E+00
      830 T=  4250. E= -.27254432E+05 F= -.31130544E+05 EK= 0.38761E+04 SP= 0.00E+00 SK= 0.00E+00
      840 T=  4220. E= -.27254363E+05 F= -.31102966E+05 EK= 0.38486E+04 SP= 0.00E+00 SK= 0.00E+00
      850 T=  4199. E= -.27254314E+05 F= -.31083688E+05 EK= 0.38294E+04 SP= 0.00E+00 SK= 0.00E+00
      860 T=  4249. E= -.27254408E+05 F= -.31129292E+05 EK= 0.38749E+04 SP= 0.00E+00 SK= 0.00E+00
      870 T=  4232. E= -.27254329E+05 F= -.31113197E+05 EK= 0.38589E+04 SP= 0.00E+00 SK= 0.00E+00
      880 T=  4235. E= -.27254250E+05 F= -.31115927E+05 EK= 0.38617E+04 SP= 0.00E+00 SK= 0.00E+00
      890 T=  4273. E= -.27254450E+05 F= -.31151309E+05 EK= 0.38969E+04 SP= 0.00E+00 SK= 0.00E+00
      900 T=  4235. E= -.27254415E+05 F= -.31116748E+05 EK= 0.38623E+04 SP= 0.00E+00 SK= 0.00E+00
      910 T=  4252. E= -.27254500E+05 F= -.31131999E+05 EK= 0.38775E+04 SP= 0.00E+00 SK= 0.00E+00
      920 T=  4218. E= -.27254489E+05 F= -.31101178E+05 EK= 0.38467E+04 SP= 0.00E+00 SK= 0.00E+00
      930 T=  4205. E= -.27254433E+05 F= -.31089282E+05 EK= 0.38348E+04 SP= 0.00E+00 SK= 0.00E+00
