 running on    6 nodes
 distr:  one band on    1 nodes,    6 groups
 md.x 0.99
 POSCAR found :  1 types and     7056 ions
 Random init:        2190        9761
 Random init:        2190        9761
 Random init:        2190        9761
Rc and Rl:   5.500000  7.321000
 TIPO = eam     
 TIPO1 = uknown p
 Using EAM

 EAM parameters: 
 C  =   9.9634  EPS  = 0.2048  A  = 3.5678  M  = 3.127  N  =  6.366  R1 =   5.500000


 ----------------------------------------------------------------------------- 
|                                                                             |
|           W    W    AA    RRRRR   N    N  II  N    N   GGGG   !!!           |
|           W    W   A  A   R    R  NN   N  II  NN   N  G    G  !!!           |
|           W    W  A    A  R    R  N N  N  II  N N  N  G       !!!           |
|           W WW W  AAAAAA  RRRRR   N  N N  II  N  N N  G  GGG   !            |
|           WW  WW  A    A  R   R   N   NN  II  N   NN  G    G                |
|           W    W  A    A  R    R  N    N  II  N    N   GGGG   !!!           |
|                                                                             |
|      VASP found  21165 degrees of freedom                                   |
|      the temperature will equal 2*E(kin)/ (degrees of freedom)              |
|      this differs from previous releases, where T was 2*E(kin)/(3 NIONS).   |
|      The new definition is more consistent                                  |
|                                                                             |
 ----------------------------------------------------------------------------- 

 Random init:        2190        9761
 Random init:        2190        9761
 Random init:        2190        9761
 alloco spazio per displ
       10 T=  4416. E= -.27059153E+05 F= -.31086681E+05 EK= 0.40275E+04 SP= 0.00E+00 SK= 0.00E+00
       20 T=  4320. E= -.27058821E+05 F= -.30998208E+05 EK= 0.39394E+04 SP= 0.00E+00 SK= 0.00E+00
       30 T=  4384. E= -.27059115E+05 F= -.31056721E+05 EK= 0.39976E+04 SP= 0.00E+00 SK= 0.00E+00
       40 T=  4340. E= -.27059013E+05 F= -.31017249E+05 EK= 0.39582E+04 SP= 0.00E+00 SK= 0.00E+00
       50 T=  4315. E= -.27059099E+05 F= -.30993794E+05 EK= 0.39347E+04 SP= 0.00E+00 SK= 0.00E+00
       60 T=  4323. E= -.27059057E+05 F= -.31001785E+05 EK= 0.39427E+04 SP= 0.00E+00 SK= 0.00E+00
       70 T=  4339. E= -.27059106E+05 F= -.31016087E+05 EK= 0.39570E+04 SP= 0.00E+00 SK= 0.00E+00
       80 T=  4295. E= -.27059040E+05 F= -.30975722E+05 EK= 0.39167E+04 SP= 0.00E+00 SK= 0.00E+00
       90 T=  4282. E= -.27059123E+05 F= -.30964049E+05 EK= 0.39049E+04 SP= 0.00E+00 SK= 0.00E+00
      100 T=  4277. E= -.27059025E+05 F= -.30959225E+05 EK= 0.39002E+04 SP= 0.00E+00 SK= 0.00E+00
      110 T=  4378. E= -.27059237E+05 F= -.31051634E+05 EK= 0.39924E+04 SP= 0.00E+00 SK= 0.00E+00
      120 T=  4337. E= -.27059034E+05 F= -.31014373E+05 EK= 0.39553E+04 SP= 0.00E+00 SK= 0.00E+00
      130 T=  4319. E= -.27059050E+05 F= -.30998122E+05 EK= 0.39391E+04 SP= 0.00E+00 SK= 0.00E+00
      140 T=  4342. E= -.27059025E+05 F= -.31018910E+05 EK= 0.39599E+04 SP= 0.00E+00 SK= 0.00E+00
      150 T=  4356. E= -.27059060E+05 F= -.31031608E+05 EK= 0.39725E+04 SP= 0.00E+00 SK= 0.00E+00
      160 T=  4352. E= -.27059117E+05 F= -.31027476E+05 EK= 0.39684E+04 SP= 0.00E+00 SK= 0.00E+00
      170 T=  4298. E= -.27058938E+05 F= -.30978248E+05 EK= 0.39193E+04 SP= 0.00E+00 SK= 0.00E+00
      180 T=  4306. E= -.27059142E+05 F= -.30985779E+05 EK= 0.39266E+04 SP= 0.00E+00 SK= 0.00E+00
      190 T=  4274. E= -.27059075E+05 F= -.30956400E+05 EK= 0.38973E+04 SP= 0.00E+00 SK= 0.00E+00
      200 T=  4256. E= -.27059047E+05 F= -.30939797E+05 EK= 0.38808E+04 SP= 0.00E+00 SK= 0.00E+00
      210 T=  4294. E= -.27059194E+05 F= -.30975004E+05 EK= 0.39158E+04 SP= 0.00E+00 SK= 0.00E+00
      220 T=  4321. E= -.27059219E+05 F= -.30999784E+05 EK= 0.39406E+04 SP= 0.00E+00 SK= 0.00E+00
      230 T=  4327. E= -.27059199E+05 F= -.31004889E+05 EK= 0.39457E+04 SP= 0.00E+00 SK= 0.00E+00
      240 T=  4289. E= -.27059107E+05 F= -.30970490E+05 EK= 0.39114E+04 SP= 0.00E+00 SK= 0.00E+00
      250 T=  4305. E= -.27059227E+05 F= -.30985530E+05 EK= 0.39263E+04 SP= 0.00E+00 SK= 0.00E+00
      260 T=  4275. E= -.27059229E+05 F= -.30957942E+05 EK= 0.38987E+04 SP= 0.00E+00 SK= 0.00E+00
      270 T=  4256. E= -.27059120E+05 F= -.30940261E+05 EK= 0.38811E+04 SP= 0.00E+00 SK= 0.00E+00
      280 T=  4295. E= -.27059148E+05 F= -.30975629E+05 EK= 0.39165E+04 SP= 0.00E+00 SK= 0.00E+00
      290 T=  4298. E= -.27059079E+05 F= -.30978211E+05 EK= 0.39191E+04 SP= 0.00E+00 SK= 0.00E+00
      300 T=  4298. E= -.27059028E+05 F= -.30978506E+05 EK= 0.39195E+04 SP= 0.00E+00 SK= 0.00E+00
      310 T=  4281. E= -.27059074E+05 F= -.30963251E+05 EK= 0.39042E+04 SP= 0.00E+00 SK= 0.00E+00
      320 T=  4247. E= -.27058973E+05 F= -.30931719E+05 EK= 0.38727E+04 SP= 0.00E+00 SK= 0.00E+00
      330 T=  4290. E= -.27059034E+05 F= -.30971432E+05 EK= 0.39124E+04 SP= 0.00E+00 SK= 0.00E+00
      340 T=  4286. E= -.27058984E+05 F= -.30967416E+05 EK= 0.39084E+04 SP= 0.00E+00 SK= 0.00E+00
      350 T=  4266. E= -.27058956E+05 F= -.30949542E+05 EK= 0.38906E+04 SP= 0.00E+00 SK= 0.00E+00
      360 T=  4265. E= -.27059011E+05 F= -.30948135E+05 EK= 0.38891E+04 SP= 0.00E+00 SK= 0.00E+00
      370 T=  4282. E= -.27058942E+05 F= -.30963630E+05 EK= 0.39047E+04 SP= 0.00E+00 SK= 0.00E+00
      380 T=  4223. E= -.27058933E+05 F= -.30910309E+05 EK= 0.38514E+04 SP= 0.00E+00 SK= 0.00E+00
      390 T=  4186. E= -.27058860E+05 F= -.30875835E+05 EK= 0.38170E+04 SP= 0.00E+00 SK= 0.00E+00
      400 T=  4251. E= -.27058969E+05 F= -.30935686E+05 EK= 0.38767E+04 SP= 0.00E+00 SK= 0.00E+00
      410 T=  4237. E= -.27059011E+05 F= -.30922888E+05 EK= 0.38639E+04 SP= 0.00E+00 SK= 0.00E+00
      420 T=  4202. E= -.27058882E+05 F= -.30891039E+05 EK= 0.38322E+04 SP= 0.00E+00 SK= 0.00E+00
      430 T=  4277. E= -.27059026E+05 F= -.30959709E+05 EK= 0.39007E+04 SP= 0.00E+00 SK= 0.00E+00
      440 T=  4278. E= -.27058941E+05 F= -.30960481E+05 EK= 0.39015E+04 SP= 0.00E+00 SK= 0.00E+00
      450 T=  4272. E= -.27058935E+05 F= -.30954459E+05 EK= 0.38955E+04 SP= 0.00E+00 SK= 0.00E+00
      460 T=  4278. E= -.27058908E+05 F= -.30960561E+05 EK= 0.39017E+04 SP= 0.00E+00 SK= 0.00E+00
      470 T=  4277. E= -.27058879E+05 F= -.30958961E+05 EK= 0.39001E+04 SP= 0.00E+00 SK= 0.00E+00
      480 T=  4224. E= -.27058816E+05 F= -.30910913E+05 EK= 0.38521E+04 SP= 0.00E+00 SK= 0.00E+00
      490 T=  4224. E= -.27058734E+05 F= -.30910940E+05 EK= 0.38522E+04 SP= 0.00E+00 SK= 0.00E+00
      500 T=  4253. E= -.27058877E+05 F= -.30937625E+05 EK= 0.38787E+04 SP= 0.00E+00 SK= 0.00E+00
      510 T=  4184. E= -.27058650E+05 F= -.30873996E+05 EK= 0.38153E+04 SP= 0.00E+00 SK= 0.00E+00
      520 T=  4257. E= -.27058850E+05 F= -.30940520E+05 EK= 0.38817E+04 SP= 0.00E+00 SK= 0.00E+00
      530 T=  4294. E= -.27058873E+05 F= -.30974759E+05 EK= 0.39159E+04 SP= 0.00E+00 SK= 0.00E+00
      540 T=  4237. E= -.27058779E+05 F= -.30922814E+05 EK= 0.38640E+04 SP= 0.00E+00 SK= 0.00E+00
      550 T=  4244. E= -.27058774E+05 F= -.30929187E+05 EK= 0.38704E+04 SP= 0.00E+00 SK= 0.00E+00
      560 T=  4284. E= -.27058772E+05 F= -.30965566E+05 EK= 0.39068E+04 SP= 0.00E+00 SK= 0.00E+00
      570 T=  4301. E= -.27058786E+05 F= -.30980942E+05 EK= 0.39222E+04 SP= 0.00E+00 SK= 0.00E+00
      580 T=  4263. E= -.27058792E+05 F= -.30946207E+05 EK= 0.38874E+04 SP= 0.00E+00 SK= 0.00E+00
      590 T=  4233. E= -.27058859E+05 F= -.30918995E+05 EK= 0.38601E+04 SP= 0.00E+00 SK= 0.00E+00
      600 T=  4162. E= -.27058726E+05 F= -.30854099E+05 EK= 0.37954E+04 SP= 0.00E+00 SK= 0.00E+00
      610 T=  4185. E= -.27058730E+05 F= -.30875340E+05 EK= 0.38166E+04 SP= 0.00E+00 SK= 0.00E+00
      620 T=  4234. E= -.27058845E+05 F= -.30920211E+05 EK= 0.38614E+04 SP= 0.00E+00 SK= 0.00E+00
      630 T=  4229. E= -.27058779E+05 F= -.30915429E+05 EK= 0.38567E+04 SP= 0.00E+00 SK= 0.00E+00
      640 T=  4249. E= -.27058795E+05 F= -.30933662E+05 EK= 0.38749E+04 SP= 0.00E+00 SK= 0.00E+00
      650 T=  4246. E= -.27058822E+05 F= -.30931269E+05 EK= 0.38724E+04 SP= 0.00E+00 SK= 0.00E+00
      660 T=  4213. E= -.27058769E+05 F= -.30900685E+05 EK= 0.38419E+04 SP= 0.00E+00 SK= 0.00E+00
      670 T=  4253. E= -.27058800E+05 F= -.30937088E+05 EK= 0.38783E+04 SP= 0.00E+00 SK= 0.00E+00
      680 T=  4285. E= -.27058885E+05 F= -.30966548E+05 EK= 0.39077E+04 SP= 0.00E+00 SK= 0.00E+00
      690 T=  4259. E= -.27058746E+05 F= -.30942967E+05 EK= 0.38842E+04 SP= 0.00E+00 SK= 0.00E+00
      700 T=  4248. E= -.27058748E+05 F= -.30932402E+05 EK= 0.38737E+04 SP= 0.00E+00 SK= 0.00E+00
      710 T=  4252. E= -.27058799E+05 F= -.30936276E+05 EK= 0.38775E+04 SP= 0.00E+00 SK= 0.00E+00
      720 T=  4224. E= -.27058829E+05 F= -.30911048E+05 EK= 0.38522E+04 SP= 0.00E+00 SK= 0.00E+00
      730 T=  4204. E= -.27058667E+05 F= -.30892432E+05 EK= 0.38338E+04 SP= 0.00E+00 SK= 0.00E+00
      740 T=  4285. E= -.27058892E+05 F= -.30966581E+05 EK= 0.39077E+04 SP= 0.00E+00 SK= 0.00E+00
      750 T=  4206. E= -.27058591E+05 F= -.30893990E+05 EK= 0.38354E+04 SP= 0.00E+00 SK= 0.00E+00
      760 T=  4263. E= -.27058749E+05 F= -.30946103E+05 EK= 0.38874E+04 SP= 0.00E+00 SK= 0.00E+00
      770 T=  4248. E= -.27058771E+05 F= -.30932897E+05 EK= 0.38741E+04 SP= 0.00E+00 SK= 0.00E+00
      780 T=  4175. E= -.27058623E+05 F= -.30865718E+05 EK= 0.38071E+04 SP= 0.00E+00 SK= 0.00E+00
      790 T=  4252. E= -.27058787E+05 F= -.30936388E+05 EK= 0.38776E+04 SP= 0.00E+00 SK= 0.00E+00
      800 T=  4282. E= -.27058749E+05 F= -.30963422E+05 EK= 0.39047E+04 SP= 0.00E+00 SK= 0.00E+00
      810 T=  4242. E= -.27058728E+05 F= -.30927087E+05 EK= 0.38684E+04 SP= 0.00E+00 SK= 0.00E+00
      820 T=  4222. E= -.27058689E+05 F= -.30909151E+05 EK= 0.38505E+04 SP= 0.00E+00 SK= 0.00E+00
      830 T=  4251. E= -.27058775E+05 F= -.30935231E+05 EK= 0.38765E+04 SP= 0.00E+00 SK= 0.00E+00
      840 T=  4246. E= -.27058734E+05 F= -.30930478E+05 EK= 0.38717E+04 SP= 0.00E+00 SK= 0.00E+00
      850 T=  4242. E= -.27058770E+05 F= -.30927482E+05 EK= 0.38687E+04 SP= 0.00E+00 SK= 0.00E+00
      860 T=  4237. E= -.27058760E+05 F= -.30922220E+05 EK= 0.38635E+04 SP= 0.00E+00 SK= 0.00E+00
      870 T=  4234. E= -.27058819E+05 F= -.30919693E+05 EK= 0.38609E+04 SP= 0.00E+00 SK= 0.00E+00
      880 T=  4205. E= -.27058679E+05 F= -.30893641E+05 EK= 0.38350E+04 SP= 0.00E+00 SK= 0.00E+00
      890 T=  4207. E= -.27058732E+05 F= -.30894969E+05 EK= 0.38362E+04 SP= 0.00E+00 SK= 0.00E+00
      900 T=  4175. E= -.27058593E+05 F= -.30866113E+05 EK= 0.38075E+04 SP= 0.00E+00 SK= 0.00E+00
      910 T=  4194. E= -.27058689E+05 F= -.30883346E+05 EK= 0.38247E+04 SP= 0.00E+00 SK= 0.00E+00
      920 T=  4174. E= -.27058573E+05 F= -.30865350E+05 EK= 0.38068E+04 SP= 0.00E+00 SK= 0.00E+00
      930 T=  4216. E= -.27058738E+05 F= -.30903237E+05 EK= 0.38445E+04 SP= 0.00E+00 SK= 0.00E+00
      940 T=  4202. E= -.27058626E+05 F= -.30890540E+05 EK= 0.38319E+04 SP= 0.00E+00 SK= 0.00E+00
      950 T=  4202. E= -.27058630E+05 F= -.30890310E+05 EK= 0.38317E+04 SP= 0.00E+00 SK= 0.00E+00
      960 T=  4211. E= -.27058615E+05 F= -.30898511E+05 EK= 0.38399E+04 SP= 0.00E+00 SK= 0.00E+00
      970 T=  4195. E= -.27058614E+05 F= -.30884055E+05 EK= 0.38254E+04 SP= 0.00E+00 SK= 0.00E+00
      980 T=  4207. E= -.27058701E+05 F= -.30895642E+05 EK= 0.38369E+04 SP= 0.00E+00 SK= 0.00E+00
      990 T=  4192. E= -.27058657E+05 F= -.30881678E+05 EK= 0.38230E+04 SP= 0.00E+00 SK= 0.00E+00
     1000 T=  4163. E= -.27058706E+05 F= -.30855035E+05 EK= 0.37963E+04 SP= 0.00E+00 SK= 0.00E+00
     1010 T=  4117. E= -.27058575E+05 F= -.30813250E+05 EK= 0.37547E+04 SP= 0.00E+00 SK= 0.00E+00
     1020 T=  4164. E= -.27058699E+05 F= -.30855877E+05 EK= 0.37972E+04 SP= 0.00E+00 SK= 0.00E+00
     1030 T=  4165. E= -.27058656E+05 F= -.30856678E+05 EK= 0.37980E+04 SP= 0.00E+00 SK= 0.00E+00
     1040 T=  4151. E= -.27058663E+05 F= -.30844051E+05 EK= 0.37854E+04 SP= 0.00E+00 SK= 0.00E+00
     1050 T=  4198. E= -.27058619E+05 F= -.30886563E+05 EK= 0.38279E+04 SP= 0.00E+00 SK= 0.00E+00
     1060 T=  4194. E= -.27058680E+05 F= -.30883036E+05 EK= 0.38244E+04 SP= 0.00E+00 SK= 0.00E+00
     1070 T=  4177. E= -.27058760E+05 F= -.30867630E+05 EK= 0.38089E+04 SP= 0.00E+00 SK= 0.00E+00
     1080 T=  4170. E= -.27058628E+05 F= -.30861577E+05 EK= 0.38029E+04 SP= 0.00E+00 SK= 0.00E+00
     1090 T=  4207. E= -.27058753E+05 F= -.30895206E+05 EK= 0.38365E+04 SP= 0.00E+00 SK= 0.00E+00
     1100 T=  4130. E= -.27058621E+05 F= -.30824674E+05 EK= 0.37661E+04 SP= 0.00E+00 SK= 0.00E+00
     1110 T=  4166. E= -.27058682E+05 F= -.30857569E+05 EK= 0.37989E+04 SP= 0.00E+00 SK= 0.00E+00
     1120 T=  4201. E= -.27058621E+05 F= -.30890035E+05 EK= 0.38314E+04 SP= 0.00E+00 SK= 0.00E+00
     1130 T=  4206. E= -.27058552E+05 F= -.30893745E+05 EK= 0.38352E+04 SP= 0.00E+00 SK= 0.00E+00
     1140 T=  4235. E= -.27058616E+05 F= -.30920847E+05 EK= 0.38622E+04 SP= 0.00E+00 SK= 0.00E+00
     1150 T=  4172. E= -.27058393E+05 F= -.30863412E+05 EK= 0.38050E+04 SP= 0.00E+00 SK= 0.00E+00
     1160 T=  4238. E= -.27058613E+05 F= -.30923251E+05 EK= 0.38646E+04 SP= 0.00E+00 SK= 0.00E+00
     1170 T=  4151. E= -.27058386E+05 F= -.30843986E+05 EK= 0.37856E+04 SP= 0.00E+00 SK= 0.00E+00
     1180 T=  4128. E= -.27058452E+05 F= -.30822762E+05 EK= 0.37643E+04 SP= 0.00E+00 SK= 0.00E+00
     1190 T=  4179. E= -.27058439E+05 F= -.30869235E+05 EK= 0.38108E+04 SP= 0.00E+00 SK= 0.00E+00
     1200 T=  4214. E= -.27058546E+05 F= -.30901403E+05 EK= 0.38429E+04 SP= 0.00E+00 SK= 0.00E+00
     1210 T=  4156. E= -.27058450E+05 F= -.30848651E+05 EK= 0.37902E+04 SP= 0.00E+00 SK= 0.00E+00
     1220 T=  4099. E= -.27058328E+05 F= -.30796007E+05 EK= 0.37377E+04 SP= 0.00E+00 SK= 0.00E+00
     1230 T=  4192. E= -.27058670E+05 F= -.30881560E+05 EK= 0.38229E+04 SP= 0.00E+00 SK= 0.00E+00
     1240 T=  4195. E= -.27058567E+05 F= -.30884257E+05 EK= 0.38257E+04 SP= 0.00E+00 SK= 0.00E+00
     1250 T=  4141. E= -.27058566E+05 F= -.30835121E+05 EK= 0.37766E+04 SP= 0.00E+00 SK= 0.00E+00
     1260 T=  4165. E= -.27058684E+05 F= -.30857112E+05 EK= 0.37984E+04 SP= 0.00E+00 SK= 0.00E+00
     1270 T=  4165. E= -.27058617E+05 F= -.30856861E+05 EK= 0.37982E+04 SP= 0.00E+00 SK= 0.00E+00
     1280 T=  4200. E= -.27058806E+05 F= -.30888589E+05 EK= 0.38298E+04 SP= 0.00E+00 SK= 0.00E+00
     1290 T=  4143. E= -.27058663E+05 F= -.30836797E+05 EK= 0.37781E+04 SP= 0.00E+00 SK= 0.00E+00
     1300 T=  4110. E= -.27058666E+05 F= -.30807042E+05 EK= 0.37484E+04 SP= 0.00E+00 SK= 0.00E+00
     1310 T=  4153. E= -.27058741E+05 F= -.30846072E+05 EK= 0.37873E+04 SP= 0.00E+00 SK= 0.00E+00
     1320 T=  4161. E= -.27058671E+05 F= -.30853398E+05 EK= 0.37947E+04 SP= 0.00E+00 SK= 0.00E+00
     1330 T=  4151. E= -.27058686E+05 F= -.30844299E+05 EK= 0.37856E+04 SP= 0.00E+00 SK= 0.00E+00
     1340 T=  4127. E= -.27058671E+05 F= -.30822478E+05 EK= 0.37638E+04 SP= 0.00E+00 SK= 0.00E+00
     1350 T=  4134. E= -.27058764E+05 F= -.30828954E+05 EK= 0.37702E+04 SP= 0.00E+00 SK= 0.00E+00
     1360 T=  4105. E= -.27058743E+05 F= -.30801822E+05 EK= 0.37431E+04 SP= 0.00E+00 SK= 0.00E+00
     1370 T=  4113. E= -.27058810E+05 F= -.30809775E+05 EK= 0.37510E+04 SP= 0.00E+00 SK= 0.00E+00
     1380 T=  4124. E= -.27058674E+05 F= -.30819168E+05 EK= 0.37605E+04 SP= 0.00E+00 SK= 0.00E+00
     1390 T=  4187. E= -.27058911E+05 F= -.30877359E+05 EK= 0.38184E+04 SP= 0.00E+00 SK= 0.00E+00
     1400 T=  4118. E= -.27058686E+05 F= -.30813847E+05 EK= 0.37552E+04 SP= 0.00E+00 SK= 0.00E+00
     1410 T=  4130. E= -.27058798E+05 F= -.30825128E+05 EK= 0.37663E+04 SP= 0.00E+00 SK= 0.00E+00
     1420 T=  4109. E= -.27058700E+05 F= -.30805957E+05 EK= 0.37473E+04 SP= 0.00E+00 SK= 0.00E+00
     1430 T=  4133. E= -.27058723E+05 F= -.30828070E+05 EK= 0.37693E+04 SP= 0.00E+00 SK= 0.00E+00
     1440 T=  4199. E= -.27058942E+05 F= -.30888117E+05 EK= 0.38292E+04 SP= 0.00E+00 SK= 0.00E+00
     1450 T=  4109. E= -.27058700E+05 F= -.30805550E+05 EK= 0.37468E+04 SP= 0.00E+00 SK= 0.00E+00
     1460 T=  4128. E= -.27058760E+05 F= -.30822919E+05 EK= 0.37642E+04 SP= 0.00E+00 SK= 0.00E+00
     1470 T=  4159. E= -.27058767E+05 F= -.30851484E+05 EK= 0.37927E+04 SP= 0.00E+00 SK= 0.00E+00
     1480 T=  4170. E= -.27058794E+05 F= -.30861489E+05 EK= 0.38027E+04 SP= 0.00E+00 SK= 0.00E+00
     1490 T=  4183. E= -.27058836E+05 F= -.30873457E+05 EK= 0.38146E+04 SP= 0.00E+00 SK= 0.00E+00
     1500 T=  4127. E= -.27058657E+05 F= -.30821891E+05 EK= 0.37632E+04 SP= 0.00E+00 SK= 0.00E+00
     1510 T=  4126. E= -.27058778E+05 F= -.30821089E+05 EK= 0.37623E+04 SP= 0.00E+00 SK= 0.00E+00
     1520 T=  4146. E= -.27058803E+05 F= -.30839520E+05 EK= 0.37807E+04 SP= 0.00E+00 SK= 0.00E+00
     1530 T=  4141. E= -.27058836E+05 F= -.30834777E+05 EK= 0.37759E+04 SP= 0.00E+00 SK= 0.00E+00
     1540 T=  4089. E= -.27058717E+05 F= -.30788065E+05 EK= 0.37293E+04 SP= 0.00E+00 SK= 0.00E+00
     1550 T=  4136. E= -.27058715E+05 F= -.30830793E+05 EK= 0.37721E+04 SP= 0.00E+00 SK= 0.00E+00
     1560 T=  4174. E= -.27058886E+05 F= -.30865577E+05 EK= 0.38067E+04 SP= 0.00E+00 SK= 0.00E+00
     1570 T=  4096. E= -.27058709E+05 F= -.30793812E+05 EK= 0.37351E+04 SP= 0.00E+00 SK= 0.00E+00
     1580 T=  4105. E= -.27058797E+05 F= -.30802712E+05 EK= 0.37439E+04 SP= 0.00E+00 SK= 0.00E+00
     1590 T=  4110. E= -.27058805E+05 F= -.30806479E+05 EK= 0.37477E+04 SP= 0.00E+00 SK= 0.00E+00
     1600 T=  4071. E= -.27058612E+05 F= -.30771365E+05 EK= 0.37128E+04 SP= 0.00E+00 SK= 0.00E+00
     1610 T=  4146. E= -.27058789E+05 F= -.30839285E+05 EK= 0.37805E+04 SP= 0.00E+00 SK= 0.00E+00
     1620 T=  4106. E= -.27058560E+05 F= -.30803107E+05 EK= 0.37445E+04 SP= 0.00E+00 SK= 0.00E+00
     1630 T=  4085. E= -.27058566E+05 F= -.30783442E+05 EK= 0.37249E+04 SP= 0.00E+00 SK= 0.00E+00
     1640 T=  4150. E= -.27058735E+05 F= -.30843016E+05 EK= 0.37843E+04 SP= 0.00E+00 SK= 0.00E+00
     1650 T=  4144. E= -.27058530E+05 F= -.30837545E+05 EK= 0.37790E+04 SP= 0.00E+00 SK= 0.00E+00
     1660 T=  4147. E= -.27058584E+05 F= -.30840376E+05 EK= 0.37818E+04 SP= 0.00E+00 SK= 0.00E+00
     1670 T=  4141. E= -.27058567E+05 F= -.30835086E+05 EK= 0.37765E+04 SP= 0.00E+00 SK= 0.00E+00
     1680 T=  4120. E= -.27058546E+05 F= -.30815501E+05 EK= 0.37570E+04 SP= 0.00E+00 SK= 0.00E+00
     1690 T=  4126. E= -.27058624E+05 F= -.30821378E+05 EK= 0.37628E+04 SP= 0.00E+00 SK= 0.00E+00
     1700 T=  4088. E= -.27058485E+05 F= -.30786709E+05 EK= 0.37282E+04 SP= 0.00E+00 SK= 0.00E+00
     1710 T=  4076. E= -.27058498E+05 F= -.30775298E+05 EK= 0.37168E+04 SP= 0.00E+00 SK= 0.00E+00
     1720 T=  4094. E= -.27058433E+05 F= -.30791696E+05 EK= 0.37333E+04 SP= 0.00E+00 SK= 0.00E+00
     1730 T=  4133. E= -.27058523E+05 F= -.30827978E+05 EK= 0.37695E+04 SP= 0.00E+00 SK= 0.00E+00
     1740 T=  4083. E= -.27058467E+05 F= -.30782043E+05 EK= 0.37236E+04 SP= 0.00E+00 SK= 0.00E+00
     1750 T=  4055. E= -.27058465E+05 F= -.30756060E+05 EK= 0.36976E+04 SP= 0.00E+00 SK= 0.00E+00
     1760 T=  4076. E= -.27058463E+05 F= -.30775359E+05 EK= 0.37169E+04 SP= 0.00E+00 SK= 0.00E+00
     1770 T=  4088. E= -.27058448E+05 F= -.30786625E+05 EK= 0.37282E+04 SP= 0.00E+00 SK= 0.00E+00
     1780 T=  4093. E= -.27058550E+05 F= -.30791242E+05 EK= 0.37327E+04 SP= 0.00E+00 SK= 0.00E+00
     1790 T=  4053. E= -.27058505E+05 F= -.30754806E+05 EK= 0.36963E+04 SP= 0.00E+00 SK= 0.00E+00
     1800 T=  4066. E= -.27058503E+05 F= -.30766829E+05 EK= 0.37083E+04 SP= 0.00E+00 SK= 0.00E+00
     1810 T=  4069. E= -.27058518E+05 F= -.30769526E+05 EK= 0.37110E+04 SP= 0.00E+00 SK= 0.00E+00
     1820 T=  4093. E= -.27058575E+05 F= -.30791526E+05 EK= 0.37330E+04 SP= 0.00E+00 SK= 0.00E+00
     1830 T=  4049. E= -.27058421E+05 F= -.30751127E+05 EK= 0.36927E+04 SP= 0.00E+00 SK= 0.00E+00
     1840 T=  4057. E= -.27058464E+05 F= -.30758031E+05 EK= 0.36996E+04 SP= 0.00E+00 SK= 0.00E+00
     1850 T=  4062. E= -.27058449E+05 F= -.30762724E+05 EK= 0.37043E+04 SP= 0.00E+00 SK= 0.00E+00
     1860 T=  4039. E= -.27058381E+05 F= -.30741606E+05 EK= 0.36832E+04 SP= 0.00E+00 SK= 0.00E+00
     1870 T=  4055. E= -.27058405E+05 F= -.30756669E+05 EK= 0.36983E+04 SP= 0.00E+00 SK= 0.00E+00
     1880 T=  4096. E= -.27058536E+05 F= -.30793480E+05 EK= 0.37349E+04 SP= 0.00E+00 SK= 0.00E+00
     1890 T=  4056. E= -.27058416E+05 F= -.30757271E+05 EK= 0.36989E+04 SP= 0.00E+00 SK= 0.00E+00
     1900 T=  4047. E= -.27058497E+05 F= -.30749019E+05 EK= 0.36905E+04 SP= 0.00E+00 SK= 0.00E+00
     1910 T=  4007. E= -.27058319E+05 F= -.30712767E+05 EK= 0.36544E+04 SP= 0.00E+00 SK= 0.00E+00
     1920 T=  4031. E= -.27058546E+05 F= -.30734757E+05 EK= 0.36762E+04 SP= 0.00E+00 SK= 0.00E+00
     1930 T=  3961. E= -.27058365E+05 F= -.30670879E+05 EK= 0.36125E+04 SP= 0.00E+00 SK= 0.00E+00
     1940 T=  4001. E= -.27058478E+05 F= -.30707116E+05 EK= 0.36486E+04 SP= 0.00E+00 SK= 0.00E+00
     1950 T=  4024. E= -.27058415E+05 F= -.30727703E+05 EK= 0.36693E+04 SP= 0.00E+00 SK= 0.00E+00
     1960 T=  4046. E= -.27058481E+05 F= -.30748387E+05 EK= 0.36899E+04 SP= 0.00E+00 SK= 0.00E+00
     1970 T=  3979. E= -.27058289E+05 F= -.30686441E+05 EK= 0.36282E+04 SP= 0.00E+00 SK= 0.00E+00
     1980 T=  3956. E= -.27058299E+05 F= -.30665667E+05 EK= 0.36074E+04 SP= 0.00E+00 SK= 0.00E+00
     1990 T=  3967. E= -.27058295E+05 F= -.30676159E+05 EK= 0.36179E+04 SP= 0.00E+00 SK= 0.00E+00
     2000 T=  3958. E= -.27058240E+05 F= -.30668053E+05 EK= 0.36098E+04 SP= 0.00E+00 SK= 0.00E+00
     2010 T=  3966. E= -.27058245E+05 F= -.30675037E+05 EK= 0.36168E+04 SP= 0.00E+00 SK= 0.00E+00
     2020 T=  4035. E= -.27058250E+05 F= -.30737720E+05 EK= 0.36795E+04 SP= 0.00E+00 SK= 0.00E+00
     2030 T=  4071. E= -.27058277E+05 F= -.30771039E+05 EK= 0.37128E+04 SP= 0.00E+00 SK= 0.00E+00
     2040 T=  3994. E= -.27058093E+05 F= -.30700269E+05 EK= 0.36422E+04 SP= 0.00E+00 SK= 0.00E+00
     2050 T=  3977. E= -.27058123E+05 F= -.30684481E+05 EK= 0.36264E+04 SP= 0.00E+00 SK= 0.00E+00
     2060 T=  3982. E= -.27058184E+05 F= -.30689629E+05 EK= 0.36314E+04 SP= 0.00E+00 SK= 0.00E+00
     2070 T=  3941. E= -.27058050E+05 F= -.30652430E+05 EK= 0.35944E+04 SP= 0.00E+00 SK= 0.00E+00
     2080 T=  3955. E= -.27058155E+05 F= -.30664449E+05 EK= 0.36063E+04 SP= 0.00E+00 SK= 0.00E+00
     2090 T=  3961. E= -.27058098E+05 F= -.30670526E+05 EK= 0.36124E+04 SP= 0.00E+00 SK= 0.00E+00
     2100 T=  3984. E= -.27058165E+05 F= -.30691004E+05 EK= 0.36328E+04 SP= 0.00E+00 SK= 0.00E+00
     2110 T=  3939. E= -.27058083E+05 F= -.30650372E+05 EK= 0.35923E+04 SP= 0.00E+00 SK= 0.00E+00
     2120 T=  3923. E= -.27058171E+05 F= -.30635592E+05 EK= 0.35774E+04 SP= 0.00E+00 SK= 0.00E+00
     2130 T=  3905. E= -.27058027E+05 F= -.30618890E+05 EK= 0.35609E+04 SP= 0.00E+00 SK= 0.00E+00
     2140 T=  3955. E= -.27058131E+05 F= -.30664919E+05 EK= 0.36068E+04 SP= 0.00E+00 SK= 0.00E+00
     2150 T=  3941. E= -.27058053E+05 F= -.30652226E+05 EK= 0.35942E+04 SP= 0.00E+00 SK= 0.00E+00
     2160 T=  3910. E= -.27057996E+05 F= -.30623995E+05 EK= 0.35660E+04 SP= 0.00E+00 SK= 0.00E+00
     2170 T=  3930. E= -.27058089E+05 F= -.30642137E+05 EK= 0.35840E+04 SP= 0.00E+00 SK= 0.00E+00
     2180 T=  3948. E= -.27058043E+05 F= -.30658169E+05 EK= 0.36001E+04 SP= 0.00E+00 SK= 0.00E+00
     2190 T=  3955. E= -.27058025E+05 F= -.30665147E+05 EK= 0.36071E+04 SP= 0.00E+00 SK= 0.00E+00
     2200 T=  3969. E= -.27058166E+05 F= -.30678000E+05 EK= 0.36198E+04 SP= 0.00E+00 SK= 0.00E+00
     2210 T=  3917. E= -.27057974E+05 F= -.30630407E+05 EK= 0.35724E+04 SP= 0.00E+00 SK= 0.00E+00
     2220 T=  3960. E= -.27058072E+05 F= -.30668885E+05 EK= 0.36108E+04 SP= 0.00E+00 SK= 0.00E+00
     2230 T=  3959. E= -.27058021E+05 F= -.30667931E+05 EK= 0.36099E+04 SP= 0.00E+00 SK= 0.00E+00
     2240 T=  3927. E= -.27057947E+05 F= -.30639220E+05 EK= 0.35813E+04 SP= 0.00E+00 SK= 0.00E+00
     2250 T=  3922. E= -.27057847E+05 F= -.30634630E+05 EK= 0.35768E+04 SP= 0.00E+00 SK= 0.00E+00
     2260 T=  3936. E= -.27057926E+05 F= -.30647129E+05 EK= 0.35892E+04 SP= 0.00E+00 SK= 0.00E+00
     2270 T=  3895. E= -.27057895E+05 F= -.30610167E+05 EK= 0.35523E+04 SP= 0.00E+00 SK= 0.00E+00
     2280 T=  3915. E= -.27057839E+05 F= -.30628362E+05 EK= 0.35705E+04 SP= 0.00E+00 SK= 0.00E+00
     2290 T=  3917. E= -.27057856E+05 F= -.30629731E+05 EK= 0.35719E+04 SP= 0.00E+00 SK= 0.00E+00
     2300 T=  3833. E= -.27057776E+05 F= -.30553672E+05 EK= 0.34959E+04 SP= 0.00E+00 SK= 0.00E+00
     2310 T=  3878. E= -.27057853E+05 F= -.30594470E+05 EK= 0.35366E+04 SP= 0.00E+00 SK= 0.00E+00
     2320 T=  3892. E= -.27057811E+05 F= -.30607316E+05 EK= 0.35495E+04 SP= 0.00E+00 SK= 0.00E+00
     2330 T=  3873. E= -.27057816E+05 F= -.30589408E+05 EK= 0.35316E+04 SP= 0.00E+00 SK= 0.00E+00
     2340 T=  3891. E= -.27057827E+05 F= -.30606386E+05 EK= 0.35486E+04 SP= 0.00E+00 SK= 0.00E+00
     2350 T=  3895. E= -.27057771E+05 F= -.30609469E+05 EK= 0.35517E+04 SP= 0.00E+00 SK= 0.00E+00
     2360 T=  3924. E= -.27057808E+05 F= -.30636377E+05 EK= 0.35786E+04 SP= 0.00E+00 SK= 0.00E+00
     2370 T=  3929. E= -.27057841E+05 F= -.30640865E+05 EK= 0.35830E+04 SP= 0.00E+00 SK= 0.00E+00
     2380 T=  3843. E= -.27057753E+05 F= -.30562195E+05 EK= 0.35044E+04 SP= 0.00E+00 SK= 0.00E+00
     2390 T=  3812. E= -.27057738E+05 F= -.30534175E+05 EK= 0.34764E+04 SP= 0.00E+00 SK= 0.00E+00
     2400 T=  3849. E= -.27057865E+05 F= -.30568098E+05 EK= 0.35102E+04 SP= 0.00E+00 SK= 0.00E+00
     2410 T=  3835. E= -.27057773E+05 F= -.30554613E+05 EK= 0.34968E+04 SP= 0.00E+00 SK= 0.00E+00
     2420 T=  3872. E= -.27057926E+05 F= -.30589378E+05 EK= 0.35315E+04 SP= 0.00E+00 SK= 0.00E+00
     2430 T=  3834. E= -.27057819E+05 F= -.30554455E+05 EK= 0.34966E+04 SP= 0.00E+00 SK= 0.00E+00
     2440 T=  3765. E= -.27057761E+05 F= -.30491152E+05 EK= 0.34334E+04 SP= 0.00E+00 SK= 0.00E+00
     2450 T=  3817. E= -.27057904E+05 F= -.30538889E+05 EK= 0.34810E+04 SP= 0.00E+00 SK= 0.00E+00
     2460 T=  3827. E= -.27057840E+05 F= -.30548022E+05 EK= 0.34902E+04 SP= 0.00E+00 SK= 0.00E+00
     2470 T=  3797. E= -.27057755E+05 F= -.30520485E+05 EK= 0.34627E+04 SP= 0.00E+00 SK= 0.00E+00
     2480 T=  3809. E= -.27057804E+05 F= -.30531775E+05 EK= 0.34740E+04 SP= 0.00E+00 SK= 0.00E+00
     2490 T=  3808. E= -.27057676E+05 F= -.30530079E+05 EK= 0.34724E+04 SP= 0.00E+00 SK= 0.00E+00
     2500 T=  3880. E= -.27057818E+05 F= -.30596268E+05 EK= 0.35385E+04 SP= 0.00E+00 SK= 0.00E+00
     2510 T=  3839. E= -.27057785E+05 F= -.30558370E+05 EK= 0.35006E+04 SP= 0.00E+00 SK= 0.00E+00
     2520 T=  3752. E= -.27057616E+05 F= -.30478999E+05 EK= 0.34214E+04 SP= 0.00E+00 SK= 0.00E+00
     2530 T=  3795. E= -.27057741E+05 F= -.30518948E+05 EK= 0.34612E+04 SP= 0.00E+00 SK= 0.00E+00
     2540 T=  3857. E= -.27057809E+05 F= -.30574699E+05 EK= 0.35169E+04 SP= 0.00E+00 SK= 0.00E+00
     2550 T=  3795. E= -.27057662E+05 F= -.30518345E+05 EK= 0.34607E+04 SP= 0.00E+00 SK= 0.00E+00
     2560 T=  3793. E= -.27057666E+05 F= -.30516492E+05 EK= 0.34588E+04 SP= 0.00E+00 SK= 0.00E+00
     2570 T=  3807. E= -.27057709E+05 F= -.30529404E+05 EK= 0.34717E+04 SP= 0.00E+00 SK= 0.00E+00
     2580 T=  3758. E= -.27057564E+05 F= -.30484594E+05 EK= 0.34270E+04 SP= 0.00E+00 SK= 0.00E+00
     2590 T=  3779. E= -.27057627E+05 F= -.30503517E+05 EK= 0.34459E+04 SP= 0.00E+00 SK= 0.00E+00
     2600 T=  3773. E= -.27057575E+05 F= -.30498700E+05 EK= 0.34411E+04 SP= 0.00E+00 SK= 0.00E+00
     2610 T=  3808. E= -.27057669E+05 F= -.30529924E+05 EK= 0.34723E+04 SP= 0.00E+00 SK= 0.00E+00
     2620 T=  3754. E= -.27057502E+05 F= -.30481170E+05 EK= 0.34237E+04 SP= 0.00E+00 SK= 0.00E+00
     2630 T=  3784. E= -.27057654E+05 F= -.30508333E+05 EK= 0.34507E+04 SP= 0.00E+00 SK= 0.00E+00
     2640 T=  3819. E= -.27057686E+05 F= -.30540210E+05 EK= 0.34825E+04 SP= 0.00E+00 SK= 0.00E+00
     2650 T=  3793. E= -.27057562E+05 F= -.30516133E+05 EK= 0.34586E+04 SP= 0.00E+00 SK= 0.00E+00
     2660 T=  3769. E= -.27057537E+05 F= -.30494873E+05 EK= 0.34373E+04 SP= 0.00E+00 SK= 0.00E+00
     2670 T=  3756. E= -.27057554E+05 F= -.30483004E+05 EK= 0.34254E+04 SP= 0.00E+00 SK= 0.00E+00
     2680 T=  3737. E= -.27057487E+05 F= -.30465801E+05 EK= 0.34083E+04 SP= 0.00E+00 SK= 0.00E+00
     2690 T=  3772. E= -.27057591E+05 F= -.30497237E+05 EK= 0.34396E+04 SP= 0.00E+00 SK= 0.00E+00
     2700 T=  3760. E= -.27057579E+05 F= -.30486761E+05 EK= 0.34292E+04 SP= 0.00E+00 SK= 0.00E+00
     2710 T=  3724. E= -.27057450E+05 F= -.30453488E+05 EK= 0.33960E+04 SP= 0.00E+00 SK= 0.00E+00
     2720 T=  3789. E= -.27057628E+05 F= -.30512874E+05 EK= 0.34552E+04 SP= 0.00E+00 SK= 0.00E+00
     2730 T=  3752. E= -.27057581E+05 F= -.30478818E+05 EK= 0.34212E+04 SP= 0.00E+00 SK= 0.00E+00
     2740 T=  3724. E= -.27057404E+05 F= -.30453777E+05 EK= 0.33964E+04 SP= 0.00E+00 SK= 0.00E+00
     2750 T=  3759. E= -.27057492E+05 F= -.30485507E+05 EK= 0.34280E+04 SP= 0.00E+00 SK= 0.00E+00
     2760 T=  3713. E= -.27057281E+05 F= -.30443526E+05 EK= 0.33862E+04 SP= 0.00E+00 SK= 0.00E+00
     2770 T=  3781. E= -.27057447E+05 F= -.30505872E+05 EK= 0.34484E+04 SP= 0.00E+00 SK= 0.00E+00
     2780 T=  3761. E= -.27057425E+05 F= -.30487237E+05 EK= 0.34298E+04 SP= 0.00E+00 SK= 0.00E+00
     2790 T=  3730. E= -.27057386E+05 F= -.30458494E+05 EK= 0.34011E+04 SP= 0.00E+00 SK= 0.00E+00
     2800 T=  3751. E= -.27057503E+05 F= -.30477840E+05 EK= 0.34203E+04 SP= 0.00E+00 SK= 0.00E+00
     2810 T=  3689. E= -.27057349E+05 F= -.30421252E+05 EK= 0.33639E+04 SP= 0.00E+00 SK= 0.00E+00
     2820 T=  3670. E= -.27057382E+05 F= -.30404206E+05 EK= 0.33468E+04 SP= 0.00E+00 SK= 0.00E+00
     2830 T=  3705. E= -.27057413E+05 F= -.30436011E+05 EK= 0.33786E+04 SP= 0.00E+00 SK= 0.00E+00
     2840 T=  3740. E= -.27057490E+05 F= -.30468427E+05 EK= 0.34109E+04 SP= 0.00E+00 SK= 0.00E+00
     2850 T=  3705. E= -.27057308E+05 F= -.30436079E+05 EK= 0.33788E+04 SP= 0.00E+00 SK= 0.00E+00
     2860 T=  3760. E= -.27057451E+05 F= -.30485963E+05 EK= 0.34285E+04 SP= 0.00E+00 SK= 0.00E+00
     2870 T=  3792. E= -.27057537E+05 F= -.30515257E+05 EK= 0.34577E+04 SP= 0.00E+00 SK= 0.00E+00
     2880 T=  3740. E= -.27057441E+05 F= -.30468014E+05 EK= 0.34106E+04 SP= 0.00E+00 SK= 0.00E+00
     2890 T=  3740. E= -.27057550E+05 F= -.30468511E+05 EK= 0.34110E+04 SP= 0.00E+00 SK= 0.00E+00
     2900 T=  3725. E= -.27057477E+05 F= -.30454164E+05 EK= 0.33967E+04 SP= 0.00E+00 SK= 0.00E+00
     2910 T=  3742. E= -.27057497E+05 F= -.30470108E+05 EK= 0.34126E+04 SP= 0.00E+00 SK= 0.00E+00
     2920 T=  3722. E= -.27057413E+05 F= -.30451438E+05 EK= 0.33940E+04 SP= 0.00E+00 SK= 0.00E+00
     2930 T=  3717. E= -.27057418E+05 F= -.30447281E+05 EK= 0.33899E+04 SP= 0.00E+00 SK= 0.00E+00
     2940 T=  3738. E= -.27057582E+05 F= -.30466011E+05 EK= 0.34084E+04 SP= 0.00E+00 SK= 0.00E+00
     2950 T=  3679. E= -.27057462E+05 F= -.30412500E+05 EK= 0.33550E+04 SP= 0.00E+00 SK= 0.00E+00
     2960 T=  3704. E= -.27057566E+05 F= -.30435414E+05 EK= 0.33778E+04 SP= 0.00E+00 SK= 0.00E+00
     2970 T=  3692. E= -.27057409E+05 F= -.30424507E+05 EK= 0.33671E+04 SP= 0.00E+00 SK= 0.00E+00
     2980 T=  3712. E= -.27057524E+05 F= -.30442840E+05 EK= 0.33853E+04 SP= 0.00E+00 SK= 0.00E+00
     2990 T=  3680. E= -.27057394E+05 F= -.30413176E+05 EK= 0.33558E+04 SP= 0.00E+00 SK= 0.00E+00
     3000 T=  3740. E= -.27057477E+05 F= -.30467741E+05 EK= 0.34103E+04 SP= 0.00E+00 SK= 0.00E+00
     3010 T=  3699. E= -.27057355E+05 F= -.30430339E+05 EK= 0.33730E+04 SP= 0.00E+00 SK= 0.00E+00
     3020 T=  3656. E= -.27057258E+05 F= -.30390914E+05 EK= 0.33337E+04 SP= 0.00E+00 SK= 0.00E+00
     3030 T=  3706. E= -.27057308E+05 F= -.30436709E+05 EK= 0.33794E+04 SP= 0.00E+00 SK= 0.00E+00
     3040 T=  3743. E= -.27057314E+05 F= -.30470864E+05 EK= 0.34135E+04 SP= 0.00E+00 SK= 0.00E+00
     3050 T=  3735. E= -.27057387E+05 F= -.30463191E+05 EK= 0.34058E+04 SP= 0.00E+00 SK= 0.00E+00
     3060 T=  3652. E= -.27057255E+05 F= -.30387717E+05 EK= 0.33305E+04 SP= 0.00E+00 SK= 0.00E+00
     3070 T=  3686. E= -.27057385E+05 F= -.30419138E+05 EK= 0.33618E+04 SP= 0.00E+00 SK= 0.00E+00
     3080 T=  3716. E= -.27057349E+05 F= -.30446208E+05 EK= 0.33889E+04 SP= 0.00E+00 SK= 0.00E+00
     3090 T=  3722. E= -.27057436E+05 F= -.30451619E+05 EK= 0.33942E+04 SP= 0.00E+00 SK= 0.00E+00
     3100 T=  3666. E= -.27057389E+05 F= -.30400998E+05 EK= 0.33436E+04 SP= 0.00E+00 SK= 0.00E+00
     3110 T=  3645. E= -.27057299E+05 F= -.30381401E+05 EK= 0.33241E+04 SP= 0.00E+00 SK= 0.00E+00
     3120 T=  3733. E= -.27057456E+05 F= -.30461829E+05 EK= 0.34044E+04 SP= 0.00E+00 SK= 0.00E+00
     3130 T=  3685. E= -.27057291E+05 F= -.30417481E+05 EK= 0.33602E+04 SP= 0.00E+00 SK= 0.00E+00
     3140 T=  3672. E= -.27057277E+05 F= -.30406004E+05 EK= 0.33487E+04 SP= 0.00E+00 SK= 0.00E+00
     3150 T=  3695. E= -.27057354E+05 F= -.30426990E+05 EK= 0.33696E+04 SP= 0.00E+00 SK= 0.00E+00
     3160 T=  3696. E= -.27057282E+05 F= -.30427745E+05 EK= 0.33705E+04 SP= 0.00E+00 SK= 0.00E+00
     3170 T=  3733. E= -.27057308E+05 F= -.30461202E+05 EK= 0.34039E+04 SP= 0.00E+00 SK= 0.00E+00
     3180 T=  3735. E= -.27057449E+05 F= -.30463529E+05 EK= 0.34061E+04 SP= 0.00E+00 SK= 0.00E+00
     3190 T=  3672. E= -.27057288E+05 F= -.30405955E+05 EK= 0.33487E+04 SP= 0.00E+00 SK= 0.00E+00
     3200 T=  3691. E= -.27057403E+05 F= -.30423071E+05 EK= 0.33657E+04 SP= 0.00E+00 SK= 0.00E+00
     3210 T=  3682. E= -.27057344E+05 F= -.30415186E+05 EK= 0.33578E+04 SP= 0.00E+00 SK= 0.00E+00
     3220 T=  3687. E= -.27057307E+05 F= -.30419325E+05 EK= 0.33620E+04 SP= 0.00E+00 SK= 0.00E+00
     3230 T=  3680. E= -.27057414E+05 F= -.30413521E+05 EK= 0.33561E+04 SP= 0.00E+00 SK= 0.00E+00
     3240 T=  3648. E= -.27057384E+05 F= -.30384535E+05 EK= 0.33272E+04 SP= 0.00E+00 SK= 0.00E+00
     3250 T=  3662. E= -.27057513E+05 F= -.30396973E+05 EK= 0.33395E+04 SP= 0.00E+00 SK= 0.00E+00
     3260 T=  3670. E= -.27057535E+05 F= -.30404399E+05 EK= 0.33469E+04 SP= 0.00E+00 SK= 0.00E+00
     3270 T=  3671. E= -.27057574E+05 F= -.30405081E+05 EK= 0.33475E+04 SP= 0.00E+00 SK= 0.00E+00
     3280 T=  3661. E= -.27057541E+05 F= -.30396440E+05 EK= 0.33389E+04 SP= 0.00E+00 SK= 0.00E+00
     3290 T=  3671. E= -.27057598E+05 F= -.30405173E+05 EK= 0.33476E+04 SP= 0.00E+00 SK= 0.00E+00
     3300 T=  3683. E= -.27057628E+05 F= -.30415975E+05 EK= 0.33583E+04 SP= 0.00E+00 SK= 0.00E+00
     3310 T=  3700. E= -.27057661E+05 F= -.30431858E+05 EK= 0.33742E+04 SP= 0.00E+00 SK= 0.00E+00
     3320 T=  3691. E= -.27057679E+05 F= -.30424005E+05 EK= 0.33663E+04 SP= 0.00E+00 SK= 0.00E+00
     3330 T=  3645. E= -.27057615E+05 F= -.30381298E+05 EK= 0.33237E+04 SP= 0.00E+00 SK= 0.00E+00
     3340 T=  3667. E= -.27057674E+05 F= -.30401334E+05 EK= 0.33437E+04 SP= 0.00E+00 SK= 0.00E+00
     3350 T=  3677. E= -.27057725E+05 F= -.30410829E+05 EK= 0.33531E+04 SP= 0.00E+00 SK= 0.00E+00
     3360 T=  3670. E= -.27057615E+05 F= -.30404406E+05 EK= 0.33468E+04 SP= 0.00E+00 SK= 0.00E+00
     3370 T=  3734. E= -.27057811E+05 F= -.30462647E+05 EK= 0.34048E+04 SP= 0.00E+00 SK= 0.00E+00
     3380 T=  3660. E= -.27057652E+05 F= -.30395535E+05 EK= 0.33379E+04 SP= 0.00E+00 SK= 0.00E+00
     3390 T=  3658. E= -.27057678E+05 F= -.30393650E+05 EK= 0.33360E+04 SP= 0.00E+00 SK= 0.00E+00
     3400 T=  3706. E= -.27057798E+05 F= -.30437663E+05 EK= 0.33799E+04 SP= 0.00E+00 SK= 0.00E+00
     3410 T=  3653. E= -.27057646E+05 F= -.30388953E+05 EK= 0.33313E+04 SP= 0.00E+00 SK= 0.00E+00
     3420 T=  3667. E= -.27057810E+05 F= -.30401543E+05 EK= 0.33437E+04 SP= 0.00E+00 SK= 0.00E+00
     3430 T=  3634. E= -.27057770E+05 F= -.30371464E+05 EK= 0.33137E+04 SP= 0.00E+00 SK= 0.00E+00
     3440 T=  3648. E= -.27057795E+05 F= -.30384845E+05 EK= 0.33271E+04 SP= 0.00E+00 SK= 0.00E+00
     3450 T=  3686. E= -.27057777E+05 F= -.30419373E+05 EK= 0.33616E+04 SP= 0.00E+00 SK= 0.00E+00
     3460 T=  3677. E= -.27057739E+05 F= -.30410619E+05 EK= 0.33529E+04 SP= 0.00E+00 SK= 0.00E+00
     3470 T=  3661. E= -.27057751E+05 F= -.30396632E+05 EK= 0.33389E+04 SP= 0.00E+00 SK= 0.00E+00
     3480 T=  3669. E= -.27057750E+05 F= -.30403896E+05 EK= 0.33461E+04 SP= 0.00E+00 SK= 0.00E+00
     3490 T=  3690. E= -.27057920E+05 F= -.30423085E+05 EK= 0.33652E+04 SP= 0.00E+00 SK= 0.00E+00
     3500 T=  3625. E= -.27057611E+05 F= -.30363469E+05 EK= 0.33059E+04 SP= 0.00E+00 SK= 0.00E+00
     3510 T=  3698. E= -.27057810E+05 F= -.30430403E+05 EK= 0.33726E+04 SP= 0.00E+00 SK= 0.00E+00
     3520 T=  3694. E= -.27057771E+05 F= -.30426385E+05 EK= 0.33686E+04 SP= 0.00E+00 SK= 0.00E+00
     3530 T=  3644. E= -.27057680E+05 F= -.30380346E+05 EK= 0.33227E+04 SP= 0.00E+00 SK= 0.00E+00
     3540 T=  3655. E= -.27057736E+05 F= -.30390758E+05 EK= 0.33330E+04 SP= 0.00E+00 SK= 0.00E+00
     3550 T=  3673. E= -.27057759E+05 F= -.30407747E+05 EK= 0.33500E+04 SP= 0.00E+00 SK= 0.00E+00
     3560 T=  3667. E= -.27057763E+05 F= -.30401891E+05 EK= 0.33441E+04 SP= 0.00E+00 SK= 0.00E+00
     3570 T=  3628. E= -.27057686E+05 F= -.30366005E+05 EK= 0.33083E+04 SP= 0.00E+00 SK= 0.00E+00
     3580 T=  3680. E= -.27057832E+05 F= -.30413978E+05 EK= 0.33561E+04 SP= 0.00E+00 SK= 0.00E+00
     3590 T=  3686. E= -.27057793E+05 F= -.30419027E+05 EK= 0.33612E+04 SP= 0.00E+00 SK= 0.00E+00
     3600 T=  3601. E= -.27057594E+05 F= -.30341391E+05 EK= 0.32838E+04 SP= 0.00E+00 SK= 0.00E+00
     3610 T=  3624. E= -.27057741E+05 F= -.30362643E+05 EK= 0.33049E+04 SP= 0.00E+00 SK= 0.00E+00
     3620 T=  3673. E= -.27057767E+05 F= -.30407396E+05 EK= 0.33496E+04 SP= 0.00E+00 SK= 0.00E+00
     3630 T=  3667. E= -.27057732E+05 F= -.30401605E+05 EK= 0.33439E+04 SP= 0.00E+00 SK= 0.00E+00
     3640 T=  3673. E= -.27057708E+05 F= -.30407047E+05 EK= 0.33493E+04 SP= 0.00E+00 SK= 0.00E+00
     3650 T=  3683. E= -.27057795E+05 F= -.30416293E+05 EK= 0.33585E+04 SP= 0.00E+00 SK= 0.00E+00
     3660 T=  3638. E= -.27057734E+05 F= -.30375561E+05 EK= 0.33178E+04 SP= 0.00E+00 SK= 0.00E+00
     3670 T=  3647. E= -.27057751E+05 F= -.30383823E+05 EK= 0.33261E+04 SP= 0.00E+00 SK= 0.00E+00
     3680 T=  3630. E= -.27057705E+05 F= -.30368361E+05 EK= 0.33107E+04 SP= 0.00E+00 SK= 0.00E+00
     3690 T=  3652. E= -.27057677E+05 F= -.30387795E+05 EK= 0.33301E+04 SP= 0.00E+00 SK= 0.00E+00
     3700 T=  3698. E= -.27057710E+05 F= -.30429710E+05 EK= 0.33720E+04 SP= 0.00E+00 SK= 0.00E+00
     3710 T=  3707. E= -.27057628E+05 F= -.30438439E+05 EK= 0.33808E+04 SP= 0.00E+00 SK= 0.00E+00
     3720 T=  3693. E= -.27057603E+05 F= -.30425688E+05 EK= 0.33681E+04 SP= 0.00E+00 SK= 0.00E+00
     3730 T=  3664. E= -.27057626E+05 F= -.30399217E+05 EK= 0.33416E+04 SP= 0.00E+00 SK= 0.00E+00
     3740 T=  3656. E= -.27057517E+05 F= -.30391804E+05 EK= 0.33343E+04 SP= 0.00E+00 SK= 0.00E+00
     3750 T=  3725. E= -.27057742E+05 F= -.30454569E+05 EK= 0.33968E+04 SP= 0.00E+00 SK= 0.00E+00
     3760 T=  3672. E= -.27057579E+05 F= -.30406245E+05 EK= 0.33487E+04 SP= 0.00E+00 SK= 0.00E+00
     3770 T=  3680. E= -.27057701E+05 F= -.30413441E+05 EK= 0.33557E+04 SP= 0.00E+00 SK= 0.00E+00
     3780 T=  3666. E= -.27057691E+05 F= -.30401147E+05 EK= 0.33435E+04 SP= 0.00E+00 SK= 0.00E+00
     3790 T=  3653. E= -.27057674E+05 F= -.30388553E+05 EK= 0.33309E+04 SP= 0.00E+00 SK= 0.00E+00
     3800 T=  3673. E= -.27057747E+05 F= -.30407050E+05 EK= 0.33493E+04 SP= 0.00E+00 SK= 0.00E+00
     3810 T=  3665. E= -.27057755E+05 F= -.30400423E+05 EK= 0.33427E+04 SP= 0.00E+00 SK= 0.00E+00
     3820 T=  3665. E= -.27057764E+05 F= -.30400345E+05 EK= 0.33426E+04 SP= 0.00E+00 SK= 0.00E+00
     3830 T=  3636. E= -.27057634E+05 F= -.30373257E+05 EK= 0.33156E+04 SP= 0.00E+00 SK= 0.00E+00
     3840 T=  3640. E= -.27057781E+05 F= -.30376773E+05 EK= 0.33190E+04 SP= 0.00E+00 SK= 0.00E+00
     3850 T=  3632. E= -.27057676E+05 F= -.30369704E+05 EK= 0.33120E+04 SP= 0.00E+00 SK= 0.00E+00
     3860 T=  3697. E= -.27057787E+05 F= -.30428840E+05 EK= 0.33711E+04 SP= 0.00E+00 SK= 0.00E+00
     3870 T=  3692. E= -.27057733E+05 F= -.30424604E+05 EK= 0.33669E+04 SP= 0.00E+00 SK= 0.00E+00
     3880 T=  3685. E= -.27057720E+05 F= -.30417776E+05 EK= 0.33601E+04 SP= 0.00E+00 SK= 0.00E+00
     3890 T=  3724. E= -.27057796E+05 F= -.30453420E+05 EK= 0.33956E+04 SP= 0.00E+00 SK= 0.00E+00
     3900 T=  3693. E= -.27057818E+05 F= -.30425749E+05 EK= 0.33679E+04 SP= 0.00E+00 SK= 0.00E+00
     3910 T=  3639. E= -.27057742E+05 F= -.30375830E+05 EK= 0.33181E+04 SP= 0.00E+00 SK= 0.00E+00
     3920 T=  3659. E= -.27057798E+05 F= -.30394135E+05 EK= 0.33363E+04 SP= 0.00E+00 SK= 0.00E+00
     3930 T=  3662. E= -.27057849E+05 F= -.30397297E+05 EK= 0.33394E+04 SP= 0.00E+00 SK= 0.00E+00
     3940 T=  3638. E= -.27057864E+05 F= -.30375918E+05 EK= 0.33181E+04 SP= 0.00E+00 SK= 0.00E+00
     3950 T=  3648. E= -.27057800E+05 F= -.30384427E+05 EK= 0.33266E+04 SP= 0.00E+00 SK= 0.00E+00
     3960 T=  3723. E= -.27057956E+05 F= -.30452836E+05 EK= 0.33949E+04 SP= 0.00E+00 SK= 0.00E+00
     3970 T=  3709. E= -.27057877E+05 F= -.30440350E+05 EK= 0.33825E+04 SP= 0.00E+00 SK= 0.00E+00
     3980 T=  3684. E= -.27057901E+05 F= -.30417648E+05 EK= 0.33597E+04 SP= 0.00E+00 SK= 0.00E+00
     3990 T=  3665. E= -.27057912E+05 F= -.30400545E+05 EK= 0.33426E+04 SP= 0.00E+00 SK= 0.00E+00
     4000 T=  3673. E= -.27057943E+05 F= -.30407639E+05 EK= 0.33497E+04 SP= 0.00E+00 SK= 0.00E+00
     4010 T=  3661. E= -.27057916E+05 F= -.30396135E+05 EK= 0.33382E+04 SP= 0.00E+00 SK= 0.00E+00
     4020 T=  3645. E= -.27057926E+05 F= -.30381711E+05 EK= 0.33238E+04 SP= 0.00E+00 SK= 0.00E+00
     4030 T=  3649. E= -.27057861E+05 F= -.30385483E+05 EK= 0.33276E+04 SP= 0.00E+00 SK= 0.00E+00
     4040 T=  3703. E= -.27057916E+05 F= -.30434936E+05 EK= 0.33770E+04 SP= 0.00E+00 SK= 0.00E+00
     4050 T=  3660. E= -.27057762E+05 F= -.30395790E+05 EK= 0.33380E+04 SP= 0.00E+00 SK= 0.00E+00
     4060 T=  3666. E= -.27057785E+05 F= -.30401149E+05 EK= 0.33434E+04 SP= 0.00E+00 SK= 0.00E+00
     4070 T=  3677. E= -.27057765E+05 F= -.30411091E+05 EK= 0.33533E+04 SP= 0.00E+00 SK= 0.00E+00
     4080 T=  3655. E= -.27057738E+05 F= -.30390580E+05 EK= 0.33328E+04 SP= 0.00E+00 SK= 0.00E+00
     4090 T=  3637. E= -.27057708E+05 F= -.30374750E+05 EK= 0.33170E+04 SP= 0.00E+00 SK= 0.00E+00
     4100 T=  3628. E= -.27057625E+05 F= -.30366139E+05 EK= 0.33085E+04 SP= 0.00E+00 SK= 0.00E+00
     4110 T=  3645. E= -.27057637E+05 F= -.30381815E+05 EK= 0.33242E+04 SP= 0.00E+00 SK= 0.00E+00
     4120 T=  3657. E= -.27057642E+05 F= -.30392713E+05 EK= 0.33351E+04 SP= 0.00E+00 SK= 0.00E+00
     4130 T=  3643. E= -.27057629E+05 F= -.30379359E+05 EK= 0.33217E+04 SP= 0.00E+00 SK= 0.00E+00
     4140 T=  3663. E= -.27057706E+05 F= -.30398544E+05 EK= 0.33408E+04 SP= 0.00E+00 SK= 0.00E+00
     4150 T=  3680. E= -.27057709E+05 F= -.30413440E+05 EK= 0.33557E+04 SP= 0.00E+00 SK= 0.00E+00
     4160 T=  3695. E= -.27057796E+05 F= -.30427648E+05 EK= 0.33699E+04 SP= 0.00E+00 SK= 0.00E+00
     4170 T=  3654. E= -.27057628E+05 F= -.30389969E+05 EK= 0.33323E+04 SP= 0.00E+00 SK= 0.00E+00
     4180 T=  3665. E= -.27057828E+05 F= -.30400487E+05 EK= 0.33427E+04 SP= 0.00E+00 SK= 0.00E+00
     4190 T=  3621. E= -.27057736E+05 F= -.30359436E+05 EK= 0.33017E+04 SP= 0.00E+00 SK= 0.00E+00
     4200 T=  3600. E= -.27057728E+05 F= -.30340453E+05 EK= 0.32827E+04 SP= 0.00E+00 SK= 0.00E+00
     4210 T=  3638. E= -.27057797E+05 F= -.30375393E+05 EK= 0.33176E+04 SP= 0.00E+00 SK= 0.00E+00
     4220 T=  3686. E= -.27057881E+05 F= -.30419158E+05 EK= 0.33613E+04 SP= 0.00E+00 SK= 0.00E+00
     4230 T=  3681. E= -.27057754E+05 F= -.30414949E+05 EK= 0.33572E+04 SP= 0.00E+00 SK= 0.00E+00
     4240 T=  3690. E= -.27057886E+05 F= -.30422475E+05 EK= 0.33646E+04 SP= 0.00E+00 SK= 0.00E+00
     4250 T=  3679. E= -.27057820E+05 F= -.30413253E+05 EK= 0.33554E+04 SP= 0.00E+00 SK= 0.00E+00
     4260 T=  3704. E= -.27057960E+05 F= -.30435844E+05 EK= 0.33779E+04 SP= 0.00E+00 SK= 0.00E+00
     4270 T=  3672. E= -.27057901E+05 F= -.30406453E+05 EK= 0.33486E+04 SP= 0.00E+00 SK= 0.00E+00
     4280 T=  3661. E= -.27057902E+05 F= -.30396883E+05 EK= 0.33390E+04 SP= 0.00E+00 SK= 0.00E+00
     4290 T=  3630. E= -.27057898E+05 F= -.30368161E+05 EK= 0.33103E+04 SP= 0.00E+00 SK= 0.00E+00
     4300 T=  3653. E= -.27057910E+05 F= -.30389239E+05 EK= 0.33313E+04 SP= 0.00E+00 SK= 0.00E+00
     4310 T=  3658. E= -.27057863E+05 F= -.30393609E+05 EK= 0.33357E+04 SP= 0.00E+00 SK= 0.00E+00
     4320 T=  3642. E= -.27057826E+05 F= -.30379451E+05 EK= 0.33216E+04 SP= 0.00E+00 SK= 0.00E+00
     4330 T=  3632. E= -.27057787E+05 F= -.30370263E+05 EK= 0.33125E+04 SP= 0.00E+00 SK= 0.00E+00
     4340 T=  3682. E= -.27057912E+05 F= -.30415719E+05 EK= 0.33578E+04 SP= 0.00E+00 SK= 0.00E+00
     4350 T=  3690. E= -.27057951E+05 F= -.30422921E+05 EK= 0.33650E+04 SP= 0.00E+00 SK= 0.00E+00
     4360 T=  3618. E= -.27057828E+05 F= -.30357093E+05 EK= 0.32993E+04 SP= 0.00E+00 SK= 0.00E+00
     4370 T=  3632. E= -.27057728E+05 F= -.30369989E+05 EK= 0.33123E+04 SP= 0.00E+00 SK= 0.00E+00
     4380 T=  3701. E= -.27057892E+05 F= -.30432677E+05 EK= 0.33748E+04 SP= 0.00E+00 SK= 0.00E+00
     4390 T=  3682. E= -.27057762E+05 F= -.30415858E+05 EK= 0.33581E+04 SP= 0.00E+00 SK= 0.00E+00
     4400 T=  3730. E= -.27057924E+05 F= -.30459433E+05 EK= 0.34015E+04 SP= 0.00E+00 SK= 0.00E+00
     4410 T=  3675. E= -.27057722E+05 F= -.30409370E+05 EK= 0.33516E+04 SP= 0.00E+00 SK= 0.00E+00
     4420 T=  3703. E= -.27057895E+05 F= -.30435070E+05 EK= 0.33772E+04 SP= 0.00E+00 SK= 0.00E+00
     4430 T=  3683. E= -.27057854E+05 F= -.30416102E+05 EK= 0.33582E+04 SP= 0.00E+00 SK= 0.00E+00
     4440 T=  3656. E= -.27057717E+05 F= -.30391728E+05 EK= 0.33340E+04 SP= 0.00E+00 SK= 0.00E+00
     4450 T=  3676. E= -.27057857E+05 F= -.30410092E+05 EK= 0.33522E+04 SP= 0.00E+00 SK= 0.00E+00
     4460 T=  3654. E= -.27057748E+05 F= -.30390115E+05 EK= 0.33324E+04 SP= 0.00E+00 SK= 0.00E+00
     4470 T=  3681. E= -.27057783E+05 F= -.30414957E+05 EK= 0.33572E+04 SP= 0.00E+00 SK= 0.00E+00
     4480 T=  3646. E= -.27057634E+05 F= -.30382695E+05 EK= 0.33251E+04 SP= 0.00E+00 SK= 0.00E+00
     4490 T=  3699. E= -.27057931E+05 F= -.30431502E+05 EK= 0.33736E+04 SP= 0.00E+00 SK= 0.00E+00
     4500 T=  3684. E= -.27057744E+05 F= -.30417452E+05 EK= 0.33597E+04 SP= 0.00E+00 SK= 0.00E+00
     4510 T=  3688. E= -.27057833E+05 F= -.30421159E+05 EK= 0.33633E+04 SP= 0.00E+00 SK= 0.00E+00
     4520 T=  3687. E= -.27057846E+05 F= -.30419946E+05 EK= 0.33621E+04 SP= 0.00E+00 SK= 0.00E+00
     4530 T=  3669. E= -.27057837E+05 F= -.30404048E+05 EK= 0.33462E+04 SP= 0.00E+00 SK= 0.00E+00
     4540 T=  3667. E= -.27057907E+05 F= -.30402335E+05 EK= 0.33444E+04 SP= 0.00E+00 SK= 0.00E+00
     4550 T=  3669. E= -.27057867E+05 F= -.30403713E+05 EK= 0.33458E+04 SP= 0.00E+00 SK= 0.00E+00
     4560 T=  3701. E= -.27057942E+05 F= -.30433280E+05 EK= 0.33753E+04 SP= 0.00E+00 SK= 0.00E+00
     4570 T=  3689. E= -.27057933E+05 F= -.30422324E+05 EK= 0.33644E+04 SP= 0.00E+00 SK= 0.00E+00
     4580 T=  3650. E= -.27057845E+05 F= -.30386144E+05 EK= 0.33283E+04 SP= 0.00E+00 SK= 0.00E+00
     4590 T=  3642. E= -.27057873E+05 F= -.30379138E+05 EK= 0.33213E+04 SP= 0.00E+00 SK= 0.00E+00
     4600 T=  3665. E= -.27057859E+05 F= -.30400522E+05 EK= 0.33427E+04 SP= 0.00E+00 SK= 0.00E+00
     4610 T=  3677. E= -.27057898E+05 F= -.30411237E+05 EK= 0.33533E+04 SP= 0.00E+00 SK= 0.00E+00
     4620 T=  3635. E= -.27057771E+05 F= -.30372422E+05 EK= 0.33147E+04 SP= 0.00E+00 SK= 0.00E+00
     4630 T=  3640. E= -.27057835E+05 F= -.30377141E+05 EK= 0.33193E+04 SP= 0.00E+00 SK= 0.00E+00
     4640 T=  3644. E= -.27057780E+05 F= -.30380768E+05 EK= 0.33230E+04 SP= 0.00E+00 SK= 0.00E+00
     4650 T=  3650. E= -.27057707E+05 F= -.30386195E+05 EK= 0.33285E+04 SP= 0.00E+00 SK= 0.00E+00
     4660 T=  3673. E= -.27057803E+05 F= -.30407162E+05 EK= 0.33494E+04 SP= 0.00E+00 SK= 0.00E+00
     4670 T=  3617. E= -.27057641E+05 F= -.30356206E+05 EK= 0.32986E+04 SP= 0.00E+00 SK= 0.00E+00
     4680 T=  3623. E= -.27057659E+05 F= -.30361321E+05 EK= 0.33037E+04 SP= 0.00E+00 SK= 0.00E+00
     4690 T=  3670. E= -.27057821E+05 F= -.30404719E+05 EK= 0.33469E+04 SP= 0.00E+00 SK= 0.00E+00
     4700 T=  3612. E= -.27057689E+05 F= -.30351570E+05 EK= 0.32939E+04 SP= 0.00E+00 SK= 0.00E+00
     4710 T=  3632. E= -.27057817E+05 F= -.30370307E+05 EK= 0.33125E+04 SP= 0.00E+00 SK= 0.00E+00
     4720 T=  3615. E= -.27057712E+05 F= -.30354425E+05 EK= 0.32967E+04 SP= 0.00E+00 SK= 0.00E+00
     4730 T=  3640. E= -.27057732E+05 F= -.30376798E+05 EK= 0.33191E+04 SP= 0.00E+00 SK= 0.00E+00
     4740 T=  3695. E= -.27057882E+05 F= -.30427607E+05 EK= 0.33697E+04 SP= 0.00E+00 SK= 0.00E+00
     4750 T=  3653. E= -.27057799E+05 F= -.30389412E+05 EK= 0.33316E+04 SP= 0.00E+00 SK= 0.00E+00
     4760 T=  3635. E= -.27057839E+05 F= -.30373154E+05 EK= 0.33153E+04 SP= 0.00E+00 SK= 0.00E+00
     4770 T=  3632. E= -.27057752E+05 F= -.30370041E+05 EK= 0.33123E+04 SP= 0.00E+00 SK= 0.00E+00
     4780 T=  3665. E= -.27057822E+05 F= -.30399712E+05 EK= 0.33419E+04 SP= 0.00E+00 SK= 0.00E+00
     4790 T=  3645. E= -.27057739E+05 F= -.30381486E+05 EK= 0.33237E+04 SP= 0.00E+00 SK= 0.00E+00
     4800 T=  3627. E= -.27057757E+05 F= -.30365195E+05 EK= 0.33074E+04 SP= 0.00E+00 SK= 0.00E+00
     4810 T=  3674. E= -.27057775E+05 F= -.30408552E+05 EK= 0.33508E+04 SP= 0.00E+00 SK= 0.00E+00
     4820 T=  3699. E= -.27057747E+05 F= -.30430934E+05 EK= 0.33732E+04 SP= 0.00E+00 SK= 0.00E+00
     4830 T=  3671. E= -.27057715E+05 F= -.30405455E+05 EK= 0.33477E+04 SP= 0.00E+00 SK= 0.00E+00
     4840 T=  3703. E= -.27057822E+05 F= -.30434526E+05 EK= 0.33767E+04 SP= 0.00E+00 SK= 0.00E+00
     4850 T=  3685. E= -.27057726E+05 F= -.30418580E+05 EK= 0.33609E+04 SP= 0.00E+00 SK= 0.00E+00
     4860 T=  3684. E= -.27057873E+05 F= -.30417190E+05 EK= 0.33593E+04 SP= 0.00E+00 SK= 0.00E+00
     4870 T=  3635. E= -.27057803E+05 F= -.30372405E+05 EK= 0.33146E+04 SP= 0.00E+00 SK= 0.00E+00
     4880 T=  3656. E= -.27057816E+05 F= -.30391890E+05 EK= 0.33341E+04 SP= 0.00E+00 SK= 0.00E+00
     4890 T=  3688. E= -.27057792E+05 F= -.30420629E+05 EK= 0.33628E+04 SP= 0.00E+00 SK= 0.00E+00
     4900 T=  3703. E= -.27057778E+05 F= -.30434375E+05 EK= 0.33766E+04 SP= 0.00E+00 SK= 0.00E+00
     4910 T=  3689. E= -.27057774E+05 F= -.30421497E+05 EK= 0.33637E+04 SP= 0.00E+00 SK= 0.00E+00
     4920 T=  3652. E= -.27057703E+05 F= -.30387957E+05 EK= 0.33303E+04 SP= 0.00E+00 SK= 0.00E+00
     4930 T=  3665. E= -.27057802E+05 F= -.30400486E+05 EK= 0.33427E+04 SP= 0.00E+00 SK= 0.00E+00
     4940 T=  3663. E= -.27057835E+05 F= -.30398304E+05 EK= 0.33405E+04 SP= 0.00E+00 SK= 0.00E+00
     4950 T=  3665. E= -.27057726E+05 F= -.30399936E+05 EK= 0.33422E+04 SP= 0.00E+00 SK= 0.00E+00
     4960 T=  3710. E= -.27057823E+05 F= -.30440720E+05 EK= 0.33829E+04 SP= 0.00E+00 SK= 0.00E+00
     4970 T=  3683. E= -.27057746E+05 F= -.30416443E+05 EK= 0.33587E+04 SP= 0.00E+00 SK= 0.00E+00
     4980 T=  3655. E= -.27057697E+05 F= -.30390722E+05 EK= 0.33330E+04 SP= 0.00E+00 SK= 0.00E+00
     4990 T=  3668. E= -.27057706E+05 F= -.30402277E+05 EK= 0.33446E+04 SP= 0.00E+00 SK= 0.00E+00
At line 1940 of file md.f90
Fortran runtime error: Unit number is negative and unit was not already opened with OPEN(NEWUNIT=...)

Error termination. Backtrace:
At line 1940 of file md.f90
Fortran runtime error: Unit number is negative and unit was not already opened with OPEN(NEWUNIT=...)

Error termination. Backtrace:
At line 1940 of file md.f90
Fortran runtime error: Unit number is negative and unit was not already opened with OPEN(NEWUNIT=...)

Error termination. Backtrace:
At line 1940 of file md.f90
Fortran runtime error: Unit number is negative and unit was not already opened with OPEN(NEWUNIT=...)

Error termination. Backtrace:
At line 1940 of file md.f90
Fortran runtime error: Unit number is negative and unit was not already opened with OPEN(NEWUNIT=...)

Error termination. Backtrace:
     5000 T=  3689. E= -.27057728E+05 F= -.30421587E+05 EK= 0.33639E+04 SP= 0.00E+00 SK= 0.00E+00
Rc and Rl:   5.500000  7.321000

Average number of steps between two list updates:  19.38
Average number of atoms in the shell:     0.01
#0  0x7fc95b250d11 in ???
#1  0x7fc95b251859 in ???
#2  0x7fc95b25253f in ???
#3  0x55c3397710bc in ???
#4  0x55c33976c92e in ???
#5  0x7fc95aee7082 in __libc_start_main
	at ../csu/libc-start.c:308
#6  0x55c33976c96d in ???
#7  0xffffffffffffffff in ???
#0  0x7fe976c5bd11 in ???
#1  0x7fe976c5c859 in ???
#2  0x7fe976c5d53f in ???
#3  0x55c1558240bc in ???
#4  0x55c15581f92e in ???
#5  0x7fe9768f2082 in __libc_start_main
	at ../csu/libc-start.c:308
#6  0x55c15581f96d in ???
#7  0xffffffffffffffff in ???
#0  0x7f639b2b8d11 in ???
#1  0x7f639b2b9859 in ???
#2  0x7f639b2ba53f in ???
#3  0x556f1605a0bc in ???
#4  0x556f1605592e in ???
#5  0x7f639af4f082 in __libc_start_main
	at ../csu/libc-start.c:308
#6  0x556f1605596d in ???
#7  0xffffffffffffffff in ???
#0  0x7fcdfedc2d11 in ???
#1  0x7fcdfedc3859 in ???
#2  0x7fcdfedc453f in ???
#3  0x562f18d200bc in ???
#4  0x562f18d1b92e in ???
#5  0x7fcdfea59082 in __libc_start_main
	at ../csu/libc-start.c:308
#6  0x562f18d1b96d in ???
#7  0xffffffffffffffff in ???
#0  0x7fd0720c4d11 in ???
#1  0x7fd0720c5859 in ???
#2  0x7fd0720c653f in ???
#3  0x562931eac0bc in ???
#4  0x562931ea792e in ???
#5  0x7fd071d5b082 in __libc_start_main
	at ../csu/libc-start.c:308
#6  0x562931ea796d in ???
#7  0xffffffffffffffff in ???
