 running on    6 nodes
 distr:  one band on    1 nodes,    6 groups
 md.x 0.99
 POSCAR found :  1 types and     7056 ions
Rc and Rl:   5.500000  7.321000
 TIPO = eam     
 TIPO1 = uknown p
 Using EAM

 EAM parameters: 
 C  =   9.9634  EPS  = 0.2048  A  = 3.5678  M  = 3.127  N  =  6.366  R1 =   5.500000


 ----------------------------------------------------------------------------- 
|                                                                             |
|           W    W    AA    RRRRR   N    N  II  N    N   GGGG   !!!           |
|           W    W   A  A   R    R  NN   N  II  NN   N  G    G  !!!           |
|           W    W  A    A  R    R  N N  N  II  N N  N  G       !!!           |
|           W WW W  AAAAAA  RRRRR   N  N N  II  N  N N  G  GGG   !            |
|           WW  WW  A    A  R   R   N   NN  II  N   NN  G    G                |
|           W    W  A    A  R    R  N    N  II  N    N   GGGG   !!!           |
|                                                                             |
|      VASP found  21165 degrees of freedom                                   |
|      the temperature will equal 2*E(kin)/ (degrees of freedom)              |
|      this differs from previous releases, where T was 2*E(kin)/(3 NIONS).   |
|      The new definition is more consistent                                  |
|                                                                             |
 ----------------------------------------------------------------------------- 

 Random init:       11068       18639
 alloco spazio per displ
 Random init:       11068       18639
 Random init:       11068       18639
 Random init:       11068       18639
 Random init:       11068       18639
 Random init:       11068       18639
       10 T=  2751. E= -.30320674E+05 F= -.32829343E+05 EK= 0.25087E+04 SP= 0.00E+00 SK= 0.00E+00
       20 T=  2711. E= -.30320512E+05 F= -.32793204E+05 EK= 0.24727E+04 SP= 0.00E+00 SK= 0.00E+00
       30 T=  2741. E= -.30320599E+05 F= -.32820170E+05 EK= 0.24996E+04 SP= 0.00E+00 SK= 0.00E+00
       40 T=  2749. E= -.30320646E+05 F= -.32827565E+05 EK= 0.25069E+04 SP= 0.00E+00 SK= 0.00E+00
       50 T=  2694. E= -.30320618E+05 F= -.32777242E+05 EK= 0.24566E+04 SP= 0.00E+00 SK= 0.00E+00
       60 T=  2678. E= -.30320680E+05 F= -.32763202E+05 EK= 0.24425E+04 SP= 0.00E+00 SK= 0.00E+00
       70 T=  2688. E= -.30320688E+05 F= -.32772071E+05 EK= 0.24514E+04 SP= 0.00E+00 SK= 0.00E+00
       80 T=  2702. E= -.30320711E+05 F= -.32784527E+05 EK= 0.24638E+04 SP= 0.00E+00 SK= 0.00E+00
       90 T=  2722. E= -.30320672E+05 F= -.32803113E+05 EK= 0.24824E+04 SP= 0.00E+00 SK= 0.00E+00
      100 T=  2744. E= -.30320708E+05 F= -.32822689E+05 EK= 0.25020E+04 SP= 0.00E+00 SK= 0.00E+00
      110 T=  2722. E= -.30320640E+05 F= -.32802912E+05 EK= 0.24823E+04 SP= 0.00E+00 SK= 0.00E+00
      120 T=  2717. E= -.30320693E+05 F= -.32797974E+05 EK= 0.24773E+04 SP= 0.00E+00 SK= 0.00E+00
      130 T=  2714. E= -.30320695E+05 F= -.32795747E+05 EK= 0.24751E+04 SP= 0.00E+00 SK= 0.00E+00
      140 T=  2730. E= -.30320652E+05 F= -.32810159E+05 EK= 0.24895E+04 SP= 0.00E+00 SK= 0.00E+00
      150 T=  2757. E= -.30320788E+05 F= -.32835382E+05 EK= 0.25146E+04 SP= 0.00E+00 SK= 0.00E+00
      160 T=  2698. E= -.30320631E+05 F= -.32781010E+05 EK= 0.24604E+04 SP= 0.00E+00 SK= 0.00E+00
      170 T=  2693. E= -.30320632E+05 F= -.32776078E+05 EK= 0.24554E+04 SP= 0.00E+00 SK= 0.00E+00
      180 T=  2708. E= -.30320642E+05 F= -.32790532E+05 EK= 0.24699E+04 SP= 0.00E+00 SK= 0.00E+00
      190 T=  2704. E= -.30320615E+05 F= -.32786837E+05 EK= 0.24662E+04 SP= 0.00E+00 SK= 0.00E+00
      200 T=  2714. E= -.30320629E+05 F= -.32795352E+05 EK= 0.24747E+04 SP= 0.00E+00 SK= 0.00E+00
      210 T=  2711. E= -.30320680E+05 F= -.32793246E+05 EK= 0.24726E+04 SP= 0.00E+00 SK= 0.00E+00
      220 T=  2707. E= -.30320770E+05 F= -.32789784E+05 EK= 0.24690E+04 SP= 0.00E+00 SK= 0.00E+00
      230 T=  2665. E= -.30320671E+05 F= -.32751312E+05 EK= 0.24306E+04 SP= 0.00E+00 SK= 0.00E+00
      240 T=  2694. E= -.30320766E+05 F= -.32777496E+05 EK= 0.24567E+04 SP= 0.00E+00 SK= 0.00E+00
      250 T=  2744. E= -.30320824E+05 F= -.32823571E+05 EK= 0.25027E+04 SP= 0.00E+00 SK= 0.00E+00
      260 T=  2718. E= -.30320748E+05 F= -.32799034E+05 EK= 0.24783E+04 SP= 0.00E+00 SK= 0.00E+00
      270 T=  2706. E= -.30320795E+05 F= -.32788154E+05 EK= 0.24674E+04 SP= 0.00E+00 SK= 0.00E+00
      280 T=  2702. E= -.30320832E+05 F= -.32784648E+05 EK= 0.24638E+04 SP= 0.00E+00 SK= 0.00E+00
      290 T=  2696. E= -.30320767E+05 F= -.32779549E+05 EK= 0.24588E+04 SP= 0.00E+00 SK= 0.00E+00
      300 T=  2723. E= -.30320845E+05 F= -.32803822E+05 EK= 0.24830E+04 SP= 0.00E+00 SK= 0.00E+00
      310 T=  2705. E= -.30320820E+05 F= -.32787789E+05 EK= 0.24670E+04 SP= 0.00E+00 SK= 0.00E+00
      320 T=  2718. E= -.30320876E+05 F= -.32799698E+05 EK= 0.24788E+04 SP= 0.00E+00 SK= 0.00E+00
      330 T=  2704. E= -.30320832E+05 F= -.32786831E+05 EK= 0.24660E+04 SP= 0.00E+00 SK= 0.00E+00
      340 T=  2694. E= -.30320889E+05 F= -.32777302E+05 EK= 0.24564E+04 SP= 0.00E+00 SK= 0.00E+00
      350 T=  2711. E= -.30320878E+05 F= -.32792733E+05 EK= 0.24719E+04 SP= 0.00E+00 SK= 0.00E+00
      360 T=  2735. E= -.30320972E+05 F= -.32815020E+05 EK= 0.24940E+04 SP= 0.00E+00 SK= 0.00E+00
      370 T=  2710. E= -.30320869E+05 F= -.32792040E+05 EK= 0.24712E+04 SP= 0.00E+00 SK= 0.00E+00
      380 T=  2721. E= -.30320958E+05 F= -.32802534E+05 EK= 0.24816E+04 SP= 0.00E+00 SK= 0.00E+00
      390 T=  2720. E= -.30320961E+05 F= -.32801287E+05 EK= 0.24803E+04 SP= 0.00E+00 SK= 0.00E+00
      400 T=  2703. E= -.30320977E+05 F= -.32786227E+05 EK= 0.24653E+04 SP= 0.00E+00 SK= 0.00E+00
      410 T=  2702. E= -.30321014E+05 F= -.32785278E+05 EK= 0.24643E+04 SP= 0.00E+00 SK= 0.00E+00
      420 T=  2696. E= -.30321013E+05 F= -.32779366E+05 EK= 0.24584E+04 SP= 0.00E+00 SK= 0.00E+00
      430 T=  2704. E= -.30321051E+05 F= -.32786613E+05 EK= 0.24656E+04 SP= 0.00E+00 SK= 0.00E+00
      440 T=  2723. E= -.30321054E+05 F= -.32803864E+05 EK= 0.24828E+04 SP= 0.00E+00 SK= 0.00E+00
      450 T=  2742. E= -.30321047E+05 F= -.32821242E+05 EK= 0.25002E+04 SP= 0.00E+00 SK= 0.00E+00
      460 T=  2736. E= -.30321041E+05 F= -.32816548E+05 EK= 0.24955E+04 SP= 0.00E+00 SK= 0.00E+00
      470 T=  2715. E= -.30321019E+05 F= -.32797123E+05 EK= 0.24761E+04 SP= 0.00E+00 SK= 0.00E+00
      480 T=  2692. E= -.30320996E+05 F= -.32776205E+05 EK= 0.24552E+04 SP= 0.00E+00 SK= 0.00E+00
      490 T=  2680. E= -.30321014E+05 F= -.32764955E+05 EK= 0.24439E+04 SP= 0.00E+00 SK= 0.00E+00
      500 T=  2687. E= -.30320998E+05 F= -.32771048E+05 EK= 0.24500E+04 SP= 0.00E+00 SK= 0.00E+00
      510 T=  2712. E= -.30320946E+05 F= -.32793788E+05 EK= 0.24728E+04 SP= 0.00E+00 SK= 0.00E+00
      520 T=  2740. E= -.30321048E+05 F= -.32819663E+05 EK= 0.24986E+04 SP= 0.00E+00 SK= 0.00E+00
      530 T=  2690. E= -.30320896E+05 F= -.32773590E+05 EK= 0.24527E+04 SP= 0.00E+00 SK= 0.00E+00
      540 T=  2711. E= -.30320968E+05 F= -.32792861E+05 EK= 0.24719E+04 SP= 0.00E+00 SK= 0.00E+00
      550 T=  2730. E= -.30321029E+05 F= -.32810295E+05 EK= 0.24893E+04 SP= 0.00E+00 SK= 0.00E+00
      560 T=  2709. E= -.30321015E+05 F= -.32791862E+05 EK= 0.24708E+04 SP= 0.00E+00 SK= 0.00E+00
      570 T=  2688. E= -.30320993E+05 F= -.32772178E+05 EK= 0.24512E+04 SP= 0.00E+00 SK= 0.00E+00
      580 T=  2686. E= -.30320933E+05 F= -.32770220E+05 EK= 0.24493E+04 SP= 0.00E+00 SK= 0.00E+00
      590 T=  2743. E= -.30321071E+05 F= -.32822077E+05 EK= 0.25010E+04 SP= 0.00E+00 SK= 0.00E+00
      600 T=  2704. E= -.30320871E+05 F= -.32786526E+05 EK= 0.24657E+04 SP= 0.00E+00 SK= 0.00E+00
      610 T=  2717. E= -.30320936E+05 F= -.32799068E+05 EK= 0.24781E+04 SP= 0.00E+00 SK= 0.00E+00
      620 T=  2716. E= -.30320967E+05 F= -.32797931E+05 EK= 0.24770E+04 SP= 0.00E+00 SK= 0.00E+00
      630 T=  2670. E= -.30320900E+05 F= -.32755510E+05 EK= 0.24346E+04 SP= 0.00E+00 SK= 0.00E+00
      640 T=  2678. E= -.30320913E+05 F= -.32762637E+05 EK= 0.24417E+04 SP= 0.00E+00 SK= 0.00E+00
      650 T=  2695. E= -.30320917E+05 F= -.32778471E+05 EK= 0.24576E+04 SP= 0.00E+00 SK= 0.00E+00
      660 T=  2718. E= -.30320943E+05 F= -.32799987E+05 EK= 0.24790E+04 SP= 0.00E+00 SK= 0.00E+00
      670 T=  2728. E= -.30320943E+05 F= -.32808418E+05 EK= 0.24875E+04 SP= 0.00E+00 SK= 0.00E+00
      680 T=  2731. E= -.30320890E+05 F= -.32811546E+05 EK= 0.24907E+04 SP= 0.00E+00 SK= 0.00E+00
      690 T=  2748. E= -.30320983E+05 F= -.32827192E+05 EK= 0.25062E+04 SP= 0.00E+00 SK= 0.00E+00
      700 T=  2721. E= -.30320885E+05 F= -.32802701E+05 EK= 0.24818E+04 SP= 0.00E+00 SK= 0.00E+00
      710 T=  2700. E= -.30320897E+05 F= -.32783273E+05 EK= 0.24624E+04 SP= 0.00E+00 SK= 0.00E+00
      720 T=  2709. E= -.30320903E+05 F= -.32791444E+05 EK= 0.24705E+04 SP= 0.00E+00 SK= 0.00E+00
      730 T=  2707. E= -.30320910E+05 F= -.32789398E+05 EK= 0.24685E+04 SP= 0.00E+00 SK= 0.00E+00
      740 T=  2693. E= -.30320817E+05 F= -.32776835E+05 EK= 0.24560E+04 SP= 0.00E+00 SK= 0.00E+00
      750 T=  2719. E= -.30320935E+05 F= -.32800536E+05 EK= 0.24796E+04 SP= 0.00E+00 SK= 0.00E+00
      760 T=  2687. E= -.30320836E+05 F= -.32771226E+05 EK= 0.24504E+04 SP= 0.00E+00 SK= 0.00E+00
      770 T=  2695. E= -.30320916E+05 F= -.32778381E+05 EK= 0.24575E+04 SP= 0.00E+00 SK= 0.00E+00
      780 T=  2716. E= -.30320930E+05 F= -.32798129E+05 EK= 0.24772E+04 SP= 0.00E+00 SK= 0.00E+00
      790 T=  2709. E= -.30320972E+05 F= -.32791448E+05 EK= 0.24705E+04 SP= 0.00E+00 SK= 0.00E+00
      800 T=  2698. E= -.30320919E+05 F= -.32780891E+05 EK= 0.24600E+04 SP= 0.00E+00 SK= 0.00E+00
      810 T=  2699. E= -.30320936E+05 F= -.32781859E+05 EK= 0.24609E+04 SP= 0.00E+00 SK= 0.00E+00
      820 T=  2697. E= -.30320984E+05 F= -.32780749E+05 EK= 0.24598E+04 SP= 0.00E+00 SK= 0.00E+00
      830 T=  2716. E= -.30320958E+05 F= -.32798008E+05 EK= 0.24770E+04 SP= 0.00E+00 SK= 0.00E+00
      840 T=  2749. E= -.30321056E+05 F= -.32827812E+05 EK= 0.25068E+04 SP= 0.00E+00 SK= 0.00E+00
      850 T=  2719. E= -.30320987E+05 F= -.32800807E+05 EK= 0.24798E+04 SP= 0.00E+00 SK= 0.00E+00
      860 T=  2694. E= -.30321009E+05 F= -.32778146E+05 EK= 0.24571E+04 SP= 0.00E+00 SK= 0.00E+00
      870 T=  2686. E= -.30320972E+05 F= -.32770441E+05 EK= 0.24495E+04 SP= 0.00E+00 SK= 0.00E+00
      880 T=  2737. E= -.30321104E+05 F= -.32817239E+05 EK= 0.24961E+04 SP= 0.00E+00 SK= 0.00E+00
      890 T=  2715. E= -.30320977E+05 F= -.32797056E+05 EK= 0.24761E+04 SP= 0.00E+00 SK= 0.00E+00
      900 T=  2714. E= -.30320961E+05 F= -.32795933E+05 EK= 0.24750E+04 SP= 0.00E+00 SK= 0.00E+00
      910 T=  2745. E= -.30321074E+05 F= -.32824278E+05 EK= 0.25032E+04 SP= 0.00E+00 SK= 0.00E+00
      920 T=  2720. E= -.30320987E+05 F= -.32801884E+05 EK= 0.24809E+04 SP= 0.00E+00 SK= 0.00E+00
      930 T=  2698. E= -.30320978E+05 F= -.32781227E+05 EK= 0.24602E+04 SP= 0.00E+00 SK= 0.00E+00
      940 T=  2707. E= -.30320930E+05 F= -.32789228E+05 EK= 0.24683E+04 SP= 0.00E+00 SK= 0.00E+00
      950 T=  2726. E= -.30321009E+05 F= -.32806714E+05 EK= 0.24857E+04 SP= 0.00E+00 SK= 0.00E+00
      960 T=  2692. E= -.30320897E+05 F= -.32775681E+05 EK= 0.24548E+04 SP= 0.00E+00 SK= 0.00E+00
      970 T=  2711. E= -.30320989E+05 F= -.32793549E+05 EK= 0.24726E+04 SP= 0.00E+00 SK= 0.00E+00
      980 T=  2709. E= -.30320921E+05 F= -.32791734E+05 EK= 0.24708E+04 SP= 0.00E+00 SK= 0.00E+00
      990 T=  2709. E= -.30320905E+05 F= -.32791542E+05 EK= 0.24706E+04 SP= 0.00E+00 SK= 0.00E+00
     1000 T=  2714. E= -.30320937E+05 F= -.32796228E+05 EK= 0.24753E+04 SP= 0.00E+00 SK= 0.00E+00
     1010 T=  2695. E= -.30320902E+05 F= -.32778801E+05 EK= 0.24579E+04 SP= 0.00E+00 SK= 0.00E+00
     1020 T=  2720. E= -.30320909E+05 F= -.32801243E+05 EK= 0.24803E+04 SP= 0.00E+00 SK= 0.00E+00
     1030 T=  2737. E= -.30320910E+05 F= -.32816961E+05 EK= 0.24961E+04 SP= 0.00E+00 SK= 0.00E+00
     1040 T=  2709. E= -.30320845E+05 F= -.32790857E+05 EK= 0.24700E+04 SP= 0.00E+00 SK= 0.00E+00
     1050 T=  2712. E= -.30320925E+05 F= -.32794408E+05 EK= 0.24735E+04 SP= 0.00E+00 SK= 0.00E+00
