 running on    6 nodes
 distr:  one band on    1 nodes,    6 groups
 md.x 0.99
 POSCAR found :  1 types and     7056 ions
Rc and Rl:   5.500000  7.321000
 TIPO = eam     
 TIPO1 = uknown p
 Using EAM

 EAM parameters: 
 C  =   9.9634  EPS  = 0.2048  A  = 3.5678  M  = 3.127  N  =  6.366  R1 =   5.500000


 ----------------------------------------------------------------------------- 
|                                                                             |
|           W    W    AA    RRRRR   N    N  II  N    N   GGGG   !!!           |
|           W    W   A  A   R    R  NN   N  II  NN   N  G    G  !!!           |
|           W    W  A    A  R    R  N N  N  II  N N  N  G       !!!           |
|           W WW W  AAAAAA  RRRRR   N  N N  II  N  N N  G  GGG   !            |
|           WW  WW  A    A  R   R   N   NN  II  N   NN  G    G                |
|           W    W  A    A  R    R  N    N  II  N    N   GGGG   !!!           |
|                                                                             |
|      VASP found  21165 degrees of freedom                                   |
|      the temperature will equal 2*E(kin)/ (degrees of freedom)              |
|      this differs from previous releases, where T was 2*E(kin)/(3 NIONS).   |
|      The new definition is more consistent                                  |
|                                                                             |
 ----------------------------------------------------------------------------- 

 Random init:        1445        9016
 Random init:        1445        9016
 Random init:        1445        9016
 Random init:        1445        9016
 Random init:        1445        9016
 Random init:        1445        9016
 alloco spazio per displ
       10 T=  3506. E= -.29073495E+05 F= -.32270346E+05 EK= 0.31969E+04 SP= 0.00E+00 SK= 0.00E+00
       20 T=  3394. E= -.29073272E+05 F= -.32168759E+05 EK= 0.30955E+04 SP= 0.00E+00 SK= 0.00E+00
       30 T=  3361. E= -.29073326E+05 F= -.32138478E+05 EK= 0.30652E+04 SP= 0.00E+00 SK= 0.00E+00
       40 T=  3387. E= -.29073469E+05 F= -.32161963E+05 EK= 0.30885E+04 SP= 0.00E+00 SK= 0.00E+00
       50 T=  3321. E= -.29073273E+05 F= -.32102260E+05 EK= 0.30290E+04 SP= 0.00E+00 SK= 0.00E+00
       60 T=  3358. E= -.29073346E+05 F= -.32135383E+05 EK= 0.30620E+04 SP= 0.00E+00 SK= 0.00E+00
       70 T=  3376. E= -.29073342E+05 F= -.32152150E+05 EK= 0.30788E+04 SP= 0.00E+00 SK= 0.00E+00
       80 T=  3357. E= -.29073281E+05 F= -.32134831E+05 EK= 0.30615E+04 SP= 0.00E+00 SK= 0.00E+00
       90 T=  3392. E= -.29073372E+05 F= -.32166779E+05 EK= 0.30934E+04 SP= 0.00E+00 SK= 0.00E+00
      100 T=  3372. E= -.29073269E+05 F= -.32148621E+05 EK= 0.30754E+04 SP= 0.00E+00 SK= 0.00E+00
      110 T=  3406. E= -.29073418E+05 F= -.32179760E+05 EK= 0.31063E+04 SP= 0.00E+00 SK= 0.00E+00
      120 T=  3362. E= -.29073278E+05 F= -.32138931E+05 EK= 0.30657E+04 SP= 0.00E+00 SK= 0.00E+00
      130 T=  3350. E= -.29073294E+05 F= -.32128302E+05 EK= 0.30550E+04 SP= 0.00E+00 SK= 0.00E+00
      140 T=  3383. E= -.29073310E+05 F= -.32158835E+05 EK= 0.30855E+04 SP= 0.00E+00 SK= 0.00E+00
      150 T=  3391. E= -.29073380E+05 F= -.32165532E+05 EK= 0.30922E+04 SP= 0.00E+00 SK= 0.00E+00
      160 T=  3348. E= -.29073307E+05 F= -.32126876E+05 EK= 0.30536E+04 SP= 0.00E+00 SK= 0.00E+00
      170 T=  3363. E= -.29073394E+05 F= -.32139929E+05 EK= 0.30665E+04 SP= 0.00E+00 SK= 0.00E+00
      180 T=  3359. E= -.29073368E+05 F= -.32136878E+05 EK= 0.30635E+04 SP= 0.00E+00 SK= 0.00E+00
      190 T=  3348. E= -.29073402E+05 F= -.32126862E+05 EK= 0.30535E+04 SP= 0.00E+00 SK= 0.00E+00
      200 T=  3346. E= -.29073402E+05 F= -.32124796E+05 EK= 0.30514E+04 SP= 0.00E+00 SK= 0.00E+00
      210 T=  3333. E= -.29073351E+05 F= -.32112906E+05 EK= 0.30396E+04 SP= 0.00E+00 SK= 0.00E+00
      220 T=  3378. E= -.29073464E+05 F= -.32153723E+05 EK= 0.30803E+04 SP= 0.00E+00 SK= 0.00E+00
      230 T=  3380. E= -.29073363E+05 F= -.32155279E+05 EK= 0.30819E+04 SP= 0.00E+00 SK= 0.00E+00
      240 T=  3398. E= -.29073486E+05 F= -.32172181E+05 EK= 0.30987E+04 SP= 0.00E+00 SK= 0.00E+00
      250 T=  3371. E= -.29073440E+05 F= -.32147340E+05 EK= 0.30739E+04 SP= 0.00E+00 SK= 0.00E+00
      260 T=  3364. E= -.29073479E+05 F= -.32141597E+05 EK= 0.30681E+04 SP= 0.00E+00 SK= 0.00E+00
      270 T=  3365. E= -.29073456E+05 F= -.32142316E+05 EK= 0.30689E+04 SP= 0.00E+00 SK= 0.00E+00
      280 T=  3369. E= -.29073441E+05 F= -.32145924E+05 EK= 0.30725E+04 SP= 0.00E+00 SK= 0.00E+00
      290 T=  3376. E= -.29073442E+05 F= -.32151883E+05 EK= 0.30784E+04 SP= 0.00E+00 SK= 0.00E+00
      300 T=  3386. E= -.29073541E+05 F= -.32160989E+05 EK= 0.30874E+04 SP= 0.00E+00 SK= 0.00E+00
      310 T=  3341. E= -.29073417E+05 F= -.32120590E+05 EK= 0.30472E+04 SP= 0.00E+00 SK= 0.00E+00
      320 T=  3365. E= -.29073451E+05 F= -.32142132E+05 EK= 0.30687E+04 SP= 0.00E+00 SK= 0.00E+00
      330 T=  3388. E= -.29073469E+05 F= -.32163105E+05 EK= 0.30896E+04 SP= 0.00E+00 SK= 0.00E+00
      340 T=  3366. E= -.29073400E+05 F= -.32142922E+05 EK= 0.30695E+04 SP= 0.00E+00 SK= 0.00E+00
      350 T=  3341. E= -.29073413E+05 F= -.32120591E+05 EK= 0.30472E+04 SP= 0.00E+00 SK= 0.00E+00
      360 T=  3345. E= -.29073368E+05 F= -.32123573E+05 EK= 0.30502E+04 SP= 0.00E+00 SK= 0.00E+00
      370 T=  3412. E= -.29073489E+05 F= -.32184785E+05 EK= 0.31113E+04 SP= 0.00E+00 SK= 0.00E+00
      380 T=  3393. E= -.29073478E+05 F= -.32167721E+05 EK= 0.30942E+04 SP= 0.00E+00 SK= 0.00E+00
      390 T=  3341. E= -.29073408E+05 F= -.32120530E+05 EK= 0.30471E+04 SP= 0.00E+00 SK= 0.00E+00
      400 T=  3362. E= -.29073436E+05 F= -.32139445E+05 EK= 0.30660E+04 SP= 0.00E+00 SK= 0.00E+00
      410 T=  3401. E= -.29073372E+05 F= -.32174629E+05 EK= 0.31013E+04 SP= 0.00E+00 SK= 0.00E+00
      420 T=  3442. E= -.29073494E+05 F= -.32212511E+05 EK= 0.31390E+04 SP= 0.00E+00 SK= 0.00E+00
      430 T=  3376. E= -.29073334E+05 F= -.32151744E+05 EK= 0.30784E+04 SP= 0.00E+00 SK= 0.00E+00
      440 T=  3358. E= -.29073435E+05 F= -.32135870E+05 EK= 0.30624E+04 SP= 0.00E+00 SK= 0.00E+00
      450 T=  3363. E= -.29073365E+05 F= -.32140580E+05 EK= 0.30672E+04 SP= 0.00E+00 SK= 0.00E+00
      460 T=  3364. E= -.29073360E+05 F= -.32140686E+05 EK= 0.30673E+04 SP= 0.00E+00 SK= 0.00E+00
      470 T=  3358. E= -.29073354E+05 F= -.32135808E+05 EK= 0.30625E+04 SP= 0.00E+00 SK= 0.00E+00
      480 T=  3375. E= -.29073387E+05 F= -.32151434E+05 EK= 0.30780E+04 SP= 0.00E+00 SK= 0.00E+00
      490 T=  3374. E= -.29073374E+05 F= -.32150224E+05 EK= 0.30769E+04 SP= 0.00E+00 SK= 0.00E+00
      500 T=  3368. E= -.29073432E+05 F= -.32145098E+05 EK= 0.30717E+04 SP= 0.00E+00 SK= 0.00E+00
      510 T=  3361. E= -.29073361E+05 F= -.32138565E+05 EK= 0.30652E+04 SP= 0.00E+00 SK= 0.00E+00
      520 T=  3401. E= -.29073501E+05 F= -.32174687E+05 EK= 0.31012E+04 SP= 0.00E+00 SK= 0.00E+00
      530 T=  3387. E= -.29073480E+05 F= -.32162086E+05 EK= 0.30886E+04 SP= 0.00E+00 SK= 0.00E+00
      540 T=  3360. E= -.29073385E+05 F= -.32137085E+05 EK= 0.30637E+04 SP= 0.00E+00 SK= 0.00E+00
      550 T=  3372. E= -.29073481E+05 F= -.32148394E+05 EK= 0.30749E+04 SP= 0.00E+00 SK= 0.00E+00
      560 T=  3364. E= -.29073384E+05 F= -.32141249E+05 EK= 0.30679E+04 SP= 0.00E+00 SK= 0.00E+00
      570 T=  3400. E= -.29073478E+05 F= -.32173681E+05 EK= 0.31002E+04 SP= 0.00E+00 SK= 0.00E+00
      580 T=  3386. E= -.29073391E+05 F= -.32160916E+05 EK= 0.30875E+04 SP= 0.00E+00 SK= 0.00E+00
      590 T=  3387. E= -.29073426E+05 F= -.32161913E+05 EK= 0.30885E+04 SP= 0.00E+00 SK= 0.00E+00
      600 T=  3363. E= -.29073380E+05 F= -.32140381E+05 EK= 0.30670E+04 SP= 0.00E+00 SK= 0.00E+00
      610 T=  3355. E= -.29073370E+05 F= -.32133230E+05 EK= 0.30599E+04 SP= 0.00E+00 SK= 0.00E+00
      620 T=  3406. E= -.29073502E+05 F= -.32179323E+05 EK= 0.31058E+04 SP= 0.00E+00 SK= 0.00E+00
      630 T=  3383. E= -.29073412E+05 F= -.32158097E+05 EK= 0.30847E+04 SP= 0.00E+00 SK= 0.00E+00
      640 T=  3378. E= -.29073519E+05 F= -.32154195E+05 EK= 0.30807E+04 SP= 0.00E+00 SK= 0.00E+00
      650 T=  3368. E= -.29073495E+05 F= -.32144949E+05 EK= 0.30715E+04 SP= 0.00E+00 SK= 0.00E+00
      660 T=  3372. E= -.29073502E+05 F= -.32148283E+05 EK= 0.30748E+04 SP= 0.00E+00 SK= 0.00E+00
      670 T=  3357. E= -.29073574E+05 F= -.32134800E+05 EK= 0.30612E+04 SP= 0.00E+00 SK= 0.00E+00
      680 T=  3330. E= -.29073510E+05 F= -.32110157E+05 EK= 0.30366E+04 SP= 0.00E+00 SK= 0.00E+00
      690 T=  3369. E= -.29073498E+05 F= -.32146012E+05 EK= 0.30725E+04 SP= 0.00E+00 SK= 0.00E+00
      700 T=  3407. E= -.29073542E+05 F= -.32180633E+05 EK= 0.31071E+04 SP= 0.00E+00 SK= 0.00E+00
      710 T=  3369. E= -.29073442E+05 F= -.32145589E+05 EK= 0.30721E+04 SP= 0.00E+00 SK= 0.00E+00
      720 T=  3404. E= -.29073452E+05 F= -.32178020E+05 EK= 0.31046E+04 SP= 0.00E+00 SK= 0.00E+00
      730 T=  3439. E= -.29073559E+05 F= -.32209706E+05 EK= 0.31361E+04 SP= 0.00E+00 SK= 0.00E+00
      740 T=  3372. E= -.29073472E+05 F= -.32148957E+05 EK= 0.30755E+04 SP= 0.00E+00 SK= 0.00E+00
      750 T=  3345. E= -.29073499E+05 F= -.32124209E+05 EK= 0.30507E+04 SP= 0.00E+00 SK= 0.00E+00
      760 T=  3361. E= -.29073516E+05 F= -.32138430E+05 EK= 0.30649E+04 SP= 0.00E+00 SK= 0.00E+00
      770 T=  3391. E= -.29073506E+05 F= -.32165947E+05 EK= 0.30924E+04 SP= 0.00E+00 SK= 0.00E+00
      780 T=  3406. E= -.29073541E+05 F= -.32179332E+05 EK= 0.31058E+04 SP= 0.00E+00 SK= 0.00E+00
      790 T=  3384. E= -.29073488E+05 F= -.32159629E+05 EK= 0.30861E+04 SP= 0.00E+00 SK= 0.00E+00
      800 T=  3367. E= -.29073478E+05 F= -.32143756E+05 EK= 0.30703E+04 SP= 0.00E+00 SK= 0.00E+00
      810 T=  3366. E= -.29073535E+05 F= -.32143246E+05 EK= 0.30697E+04 SP= 0.00E+00 SK= 0.00E+00
      820 T=  3350. E= -.29073553E+05 F= -.32128197E+05 EK= 0.30546E+04 SP= 0.00E+00 SK= 0.00E+00
      830 T=  3364. E= -.29073649E+05 F= -.32141495E+05 EK= 0.30678E+04 SP= 0.00E+00 SK= 0.00E+00
      840 T=  3380. E= -.29073654E+05 F= -.32156381E+05 EK= 0.30827E+04 SP= 0.00E+00 SK= 0.00E+00
      850 T=  3378. E= -.29073615E+05 F= -.32154209E+05 EK= 0.30806E+04 SP= 0.00E+00 SK= 0.00E+00
      860 T=  3379. E= -.29073598E+05 F= -.32154750E+05 EK= 0.30812E+04 SP= 0.00E+00 SK= 0.00E+00
      870 T=  3382. E= -.29073619E+05 F= -.32157936E+05 EK= 0.30843E+04 SP= 0.00E+00 SK= 0.00E+00
      880 T=  3348. E= -.29073531E+05 F= -.32127097E+05 EK= 0.30536E+04 SP= 0.00E+00 SK= 0.00E+00
      890 T=  3349. E= -.29073642E+05 F= -.32127900E+05 EK= 0.30543E+04 SP= 0.00E+00 SK= 0.00E+00
      900 T=  3332. E= -.29073582E+05 F= -.32112105E+05 EK= 0.30385E+04 SP= 0.00E+00 SK= 0.00E+00
      910 T=  3355. E= -.29073682E+05 F= -.32132949E+05 EK= 0.30593E+04 SP= 0.00E+00 SK= 0.00E+00
      920 T=  3364. E= -.29073618E+05 F= -.32141621E+05 EK= 0.30680E+04 SP= 0.00E+00 SK= 0.00E+00
      930 T=  3417. E= -.29073697E+05 F= -.32190221E+05 EK= 0.31165E+04 SP= 0.00E+00 SK= 0.00E+00
      940 T=  3418. E= -.29073768E+05 F= -.32191094E+05 EK= 0.31173E+04 SP= 0.00E+00 SK= 0.00E+00
      950 T=  3342. E= -.29073610E+05 F= -.32121033E+05 EK= 0.30474E+04 SP= 0.00E+00 SK= 0.00E+00
      960 T=  3350. E= -.29073774E+05 F= -.32128718E+05 EK= 0.30549E+04 SP= 0.00E+00 SK= 0.00E+00
      970 T=  3359. E= -.29073730E+05 F= -.32137268E+05 EK= 0.30635E+04 SP= 0.00E+00 SK= 0.00E+00
      980 T=  3389. E= -.29073801E+05 F= -.32164003E+05 EK= 0.30902E+04 SP= 0.00E+00 SK= 0.00E+00
      990 T=  3364. E= -.29073789E+05 F= -.32141452E+05 EK= 0.30677E+04 SP= 0.00E+00 SK= 0.00E+00
     1000 T=  3379. E= -.29073750E+05 F= -.32155159E+05 EK= 0.30814E+04 SP= 0.00E+00 SK= 0.00E+00
     1010 T=  3425. E= -.29073867E+05 F= -.32197352E+05 EK= 0.31235E+04 SP= 0.00E+00 SK= 0.00E+00
     1020 T=  3367. E= -.29073737E+05 F= -.32144582E+05 EK= 0.30708E+04 SP= 0.00E+00 SK= 0.00E+00
     1030 T=  3346. E= -.29073640E+05 F= -.32124769E+05 EK= 0.30511E+04 SP= 0.00E+00 SK= 0.00E+00
     1040 T=  3389. E= -.29073719E+05 F= -.32164358E+05 EK= 0.30906E+04 SP= 0.00E+00 SK= 0.00E+00
     1050 T=  3373. E= -.29073652E+05 F= -.32149839E+05 EK= 0.30762E+04 SP= 0.00E+00 SK= 0.00E+00
     1060 T=  3382. E= -.29073710E+05 F= -.32158325E+05 EK= 0.30846E+04 SP= 0.00E+00 SK= 0.00E+00
     1070 T=  3376. E= -.29073692E+05 F= -.32152813E+05 EK= 0.30791E+04 SP= 0.00E+00 SK= 0.00E+00
     1080 T=  3371. E= -.29073730E+05 F= -.32147443E+05 EK= 0.30737E+04 SP= 0.00E+00 SK= 0.00E+00
     1090 T=  3354. E= -.29073649E+05 F= -.32131955E+05 EK= 0.30583E+04 SP= 0.00E+00 SK= 0.00E+00
     1100 T=  3388. E= -.29073703E+05 F= -.32163384E+05 EK= 0.30897E+04 SP= 0.00E+00 SK= 0.00E+00
     1110 T=  3387. E= -.29073672E+05 F= -.32162092E+05 EK= 0.30884E+04 SP= 0.00E+00 SK= 0.00E+00
     1120 T=  3361. E= -.29073676E+05 F= -.32138496E+05 EK= 0.30648E+04 SP= 0.00E+00 SK= 0.00E+00
     1130 T=  3351. E= -.29073689E+05 F= -.32129692E+05 EK= 0.30560E+04 SP= 0.00E+00 SK= 0.00E+00
     1140 T=  3337. E= -.29073577E+05 F= -.32116547E+05 EK= 0.30430E+04 SP= 0.00E+00 SK= 0.00E+00
     1150 T=  3390. E= -.29073634E+05 F= -.32164880E+05 EK= 0.30912E+04 SP= 0.00E+00 SK= 0.00E+00
     1160 T=  3431. E= -.29073686E+05 F= -.32202228E+05 EK= 0.31285E+04 SP= 0.00E+00 SK= 0.00E+00
     1170 T=  3384. E= -.29073477E+05 F= -.32159156E+05 EK= 0.30857E+04 SP= 0.00E+00 SK= 0.00E+00
     1180 T=  3393. E= -.29073594E+05 F= -.32167949E+05 EK= 0.30944E+04 SP= 0.00E+00 SK= 0.00E+00
     1190 T=  3342. E= -.29073484E+05 F= -.32121269E+05 EK= 0.30478E+04 SP= 0.00E+00 SK= 0.00E+00
     1200 T=  3326. E= -.29073417E+05 F= -.32106890E+05 EK= 0.30335E+04 SP= 0.00E+00 SK= 0.00E+00
     1210 T=  3386. E= -.29073529E+05 F= -.32160892E+05 EK= 0.30874E+04 SP= 0.00E+00 SK= 0.00E+00
     1220 T=  3378. E= -.29073423E+05 F= -.32153632E+05 EK= 0.30802E+04 SP= 0.00E+00 SK= 0.00E+00
     1230 T=  3366. E= -.29073394E+05 F= -.32142673E+05 EK= 0.30693E+04 SP= 0.00E+00 SK= 0.00E+00
     1240 T=  3374. E= -.29073431E+05 F= -.32150711E+05 EK= 0.30773E+04 SP= 0.00E+00 SK= 0.00E+00
     1250 T=  3368. E= -.29073433E+05 F= -.32145121E+05 EK= 0.30717E+04 SP= 0.00E+00 SK= 0.00E+00
     1260 T=  3360. E= -.29073441E+05 F= -.32137145E+05 EK= 0.30637E+04 SP= 0.00E+00 SK= 0.00E+00
     1270 T=  3353. E= -.29073339E+05 F= -.32130905E+05 EK= 0.30576E+04 SP= 0.00E+00 SK= 0.00E+00
     1280 T=  3420. E= -.29073493E+05 F= -.32192244E+05 EK= 0.31188E+04 SP= 0.00E+00 SK= 0.00E+00
     1290 T=  3393. E= -.29073373E+05 F= -.32167302E+05 EK= 0.30939E+04 SP= 0.00E+00 SK= 0.00E+00
     1300 T=  3364. E= -.29073364E+05 F= -.32141143E+05 EK= 0.30678E+04 SP= 0.00E+00 SK= 0.00E+00
     1310 T=  3364. E= -.29073406E+05 F= -.32140720E+05 EK= 0.30673E+04 SP= 0.00E+00 SK= 0.00E+00
     1320 T=  3323. E= -.29073253E+05 F= -.32103310E+05 EK= 0.30301E+04 SP= 0.00E+00 SK= 0.00E+00
     1330 T=  3380. E= -.29073384E+05 F= -.32155431E+05 EK= 0.30820E+04 SP= 0.00E+00 SK= 0.00E+00
     1340 T=  3391. E= -.29073303E+05 F= -.32165728E+05 EK= 0.30924E+04 SP= 0.00E+00 SK= 0.00E+00
     1350 T=  3358. E= -.29073329E+05 F= -.32135828E+05 EK= 0.30625E+04 SP= 0.00E+00 SK= 0.00E+00
     1360 T=  3333. E= -.29073294E+05 F= -.32112529E+05 EK= 0.30392E+04 SP= 0.00E+00 SK= 0.00E+00
     1370 T=  3382. E= -.29073348E+05 F= -.32157699E+05 EK= 0.30844E+04 SP= 0.00E+00 SK= 0.00E+00
     1380 T=  3386. E= -.29073292E+05 F= -.32160957E+05 EK= 0.30877E+04 SP= 0.00E+00 SK= 0.00E+00
     1390 T=  3392. E= -.29073315E+05 F= -.32166663E+05 EK= 0.30933E+04 SP= 0.00E+00 SK= 0.00E+00
     1400 T=  3377. E= -.29073251E+05 F= -.32152684E+05 EK= 0.30794E+04 SP= 0.00E+00 SK= 0.00E+00
     1410 T=  3376. E= -.29073247E+05 F= -.32152262E+05 EK= 0.30790E+04 SP= 0.00E+00 SK= 0.00E+00
     1420 T=  3392. E= -.29073278E+05 F= -.32166838E+05 EK= 0.30936E+04 SP= 0.00E+00 SK= 0.00E+00
     1430 T=  3387. E= -.29073219E+05 F= -.32161672E+05 EK= 0.30885E+04 SP= 0.00E+00 SK= 0.00E+00
     1440 T=  3369. E= -.29073233E+05 F= -.32145103E+05 EK= 0.30719E+04 SP= 0.00E+00 SK= 0.00E+00
     1450 T=  3373. E= -.29073231E+05 F= -.32148942E+05 EK= 0.30757E+04 SP= 0.00E+00 SK= 0.00E+00
     1460 T=  3368. E= -.29073186E+05 F= -.32144281E+05 EK= 0.30711E+04 SP= 0.00E+00 SK= 0.00E+00
     1470 T=  3355. E= -.29073134E+05 F= -.32132412E+05 EK= 0.30593E+04 SP= 0.00E+00 SK= 0.00E+00
     1480 T=  3391. E= -.29073207E+05 F= -.32165924E+05 EK= 0.30927E+04 SP= 0.00E+00 SK= 0.00E+00
     1490 T=  3379. E= -.29073126E+05 F= -.32154931E+05 EK= 0.30818E+04 SP= 0.00E+00 SK= 0.00E+00
     1500 T=  3379. E= -.29073115E+05 F= -.32154668E+05 EK= 0.30816E+04 SP= 0.00E+00 SK= 0.00E+00
     1510 T=  3386. E= -.29073110E+05 F= -.32160557E+05 EK= 0.30874E+04 SP= 0.00E+00 SK= 0.00E+00
     1520 T=  3407. E= -.29073069E+05 F= -.32180416E+05 EK= 0.31073E+04 SP= 0.00E+00 SK= 0.00E+00
     1530 T=  3443. E= -.29073187E+05 F= -.32213010E+05 EK= 0.31398E+04 SP= 0.00E+00 SK= 0.00E+00
     1540 T=  3378. E= -.29073062E+05 F= -.32153460E+05 EK= 0.30804E+04 SP= 0.00E+00 SK= 0.00E+00
     1550 T=  3382. E= -.29073170E+05 F= -.32157392E+05 EK= 0.30842E+04 SP= 0.00E+00 SK= 0.00E+00
     1560 T=  3376. E= -.29073107E+05 F= -.32151719E+05 EK= 0.30786E+04 SP= 0.00E+00 SK= 0.00E+00
     1570 T=  3376. E= -.29073162E+05 F= -.32151895E+05 EK= 0.30787E+04 SP= 0.00E+00 SK= 0.00E+00
     1580 T=  3373. E= -.29073058E+05 F= -.32148728E+05 EK= 0.30757E+04 SP= 0.00E+00 SK= 0.00E+00
     1590 T=  3376. E= -.29073096E+05 F= -.32151648E+05 EK= 0.30786E+04 SP= 0.00E+00 SK= 0.00E+00
     1600 T=  3362. E= -.29073055E+05 F= -.32139147E+05 EK= 0.30661E+04 SP= 0.00E+00 SK= 0.00E+00
     1610 T=  3374. E= -.29073052E+05 F= -.32149536E+05 EK= 0.30765E+04 SP= 0.00E+00 SK= 0.00E+00
     1620 T=  3370. E= -.29072943E+05 F= -.32146582E+05 EK= 0.30736E+04 SP= 0.00E+00 SK= 0.00E+00
     1630 T=  3385. E= -.29073013E+05 F= -.32160118E+05 EK= 0.30871E+04 SP= 0.00E+00 SK= 0.00E+00
     1640 T=  3349. E= -.29072988E+05 F= -.32126964E+05 EK= 0.30540E+04 SP= 0.00E+00 SK= 0.00E+00
     1650 T=  3313. E= -.29072992E+05 F= -.32094280E+05 EK= 0.30213E+04 SP= 0.00E+00 SK= 0.00E+00
     1660 T=  3356. E= -.29073057E+05 F= -.32133809E+05 EK= 0.30608E+04 SP= 0.00E+00 SK= 0.00E+00
     1670 T=  3374. E= -.29073033E+05 F= -.32149662E+05 EK= 0.30766E+04 SP= 0.00E+00 SK= 0.00E+00
     1680 T=  3328. E= -.29072922E+05 F= -.32107510E+05 EK= 0.30346E+04 SP= 0.00E+00 SK= 0.00E+00
     1690 T=  3387. E= -.29073044E+05 F= -.32162166E+05 EK= 0.30891E+04 SP= 0.00E+00 SK= 0.00E+00
     1700 T=  3429. E= -.29072996E+05 F= -.32200211E+05 EK= 0.31272E+04 SP= 0.00E+00 SK= 0.00E+00
     1710 T=  3403. E= -.29072902E+05 F= -.32175864E+05 EK= 0.31030E+04 SP= 0.00E+00 SK= 0.00E+00
     1720 T=  3376. E= -.29072921E+05 F= -.32151417E+05 EK= 0.30785E+04 SP= 0.00E+00 SK= 0.00E+00
     1730 T=  3363. E= -.29072981E+05 F= -.32140178E+05 EK= 0.30672E+04 SP= 0.00E+00 SK= 0.00E+00
     1740 T=  3349. E= -.29072944E+05 F= -.32127405E+05 EK= 0.30545E+04 SP= 0.00E+00 SK= 0.00E+00
     1750 T=  3391. E= -.29072967E+05 F= -.32165704E+05 EK= 0.30927E+04 SP= 0.00E+00 SK= 0.00E+00
     1760 T=  3400. E= -.29072923E+05 F= -.32173076E+05 EK= 0.31002E+04 SP= 0.00E+00 SK= 0.00E+00
     1770 T=  3381. E= -.29072994E+05 F= -.32156653E+05 EK= 0.30837E+04 SP= 0.00E+00 SK= 0.00E+00
     1780 T=  3370. E= -.29072947E+05 F= -.32146169E+05 EK= 0.30732E+04 SP= 0.00E+00 SK= 0.00E+00
     1790 T=  3369. E= -.29073006E+05 F= -.32145595E+05 EK= 0.30726E+04 SP= 0.00E+00 SK= 0.00E+00
     1800 T=  3340. E= -.29072946E+05 F= -.32118738E+05 EK= 0.30458E+04 SP= 0.00E+00 SK= 0.00E+00
     1810 T=  3363. E= -.29072997E+05 F= -.32140072E+05 EK= 0.30671E+04 SP= 0.00E+00 SK= 0.00E+00
     1820 T=  3362. E= -.29072945E+05 F= -.32138803E+05 EK= 0.30659E+04 SP= 0.00E+00 SK= 0.00E+00
     1830 T=  3352. E= -.29072909E+05 F= -.32129585E+05 EK= 0.30567E+04 SP= 0.00E+00 SK= 0.00E+00
     1840 T=  3372. E= -.29072942E+05 F= -.32147746E+05 EK= 0.30748E+04 SP= 0.00E+00 SK= 0.00E+00
     1850 T=  3382. E= -.29072922E+05 F= -.32156909E+05 EK= 0.30840E+04 SP= 0.00E+00 SK= 0.00E+00
     1860 T=  3371. E= -.29072892E+05 F= -.32147038E+05 EK= 0.30741E+04 SP= 0.00E+00 SK= 0.00E+00
     1870 T=  3375. E= -.29072862E+05 F= -.32150361E+05 EK= 0.30775E+04 SP= 0.00E+00 SK= 0.00E+00
     1880 T=  3393. E= -.29072884E+05 F= -.32166633E+05 EK= 0.30937E+04 SP= 0.00E+00 SK= 0.00E+00
     1890 T=  3360. E= -.29072784E+05 F= -.32137041E+05 EK= 0.30643E+04 SP= 0.00E+00 SK= 0.00E+00
     1900 T=  3400. E= -.29072889E+05 F= -.32173828E+05 EK= 0.31009E+04 SP= 0.00E+00 SK= 0.00E+00
     1910 T=  3401. E= -.29072987E+05 F= -.32174278E+05 EK= 0.31013E+04 SP= 0.00E+00 SK= 0.00E+00
     1920 T=  3343. E= -.29072821E+05 F= -.32120976E+05 EK= 0.30482E+04 SP= 0.00E+00 SK= 0.00E+00
     1930 T=  3389. E= -.29073000E+05 F= -.32163763E+05 EK= 0.30908E+04 SP= 0.00E+00 SK= 0.00E+00
     1940 T=  3366. E= -.29072839E+05 F= -.32142725E+05 EK= 0.30699E+04 SP= 0.00E+00 SK= 0.00E+00
     1950 T=  3408. E= -.29073005E+05 F= -.32180583E+05 EK= 0.31076E+04 SP= 0.00E+00 SK= 0.00E+00
     1960 T=  3365. E= -.29072858E+05 F= -.32141341E+05 EK= 0.30685E+04 SP= 0.00E+00 SK= 0.00E+00
     1970 T=  3371. E= -.29072889E+05 F= -.32146693E+05 EK= 0.30738E+04 SP= 0.00E+00 SK= 0.00E+00
     1980 T=  3393. E= -.29072934E+05 F= -.32167052E+05 EK= 0.30941E+04 SP= 0.00E+00 SK= 0.00E+00
     1990 T=  3342. E= -.29072803E+05 F= -.32120706E+05 EK= 0.30479E+04 SP= 0.00E+00 SK= 0.00E+00
At line 1940 of file md.f90
Fortran runtime error: Unit number is negative and unit was not already opened with OPEN(NEWUNIT=...)

Error termination. Backtrace:
At line 1940 of file md.f90
Fortran runtime error: Unit number is negative and unit was not already opened with OPEN(NEWUNIT=...)

Error termination. Backtrace:
At line 1940 of file md.f90
Fortran runtime error: Unit number is negative and unit was not already opened with OPEN(NEWUNIT=...)

Error termination. Backtrace:
At line 1940 of file md.f90
Fortran runtime error: Unit number is negative and unit was not already opened with OPEN(NEWUNIT=...)

Error termination. Backtrace:
At line 1940 of file md.f90
Fortran runtime error: Unit number is negative and unit was not already opened with OPEN(NEWUNIT=...)

Error termination. Backtrace:
     2000 T=  3364. E= -.29072941E+05 F= -.32140807E+05 EK= 0.30679E+04 SP= 0.00E+00 SK= 0.00E+00
Rc and Rl:   5.500000  7.321000

Average number of steps between two list updates:  21.05
Average number of atoms in the shell:     0.01
#0  0x7f2419211d11 in ???
#1  0x7f2419212859 in ???
#2  0x7f241921353f in ???
#3  0x5653ef6a00bc in ???
#4  0x5653ef69b92e in ???
#5  0x7f2418ea8082 in __libc_start_main
	at ../csu/libc-start.c:308
#6  0x5653ef69b96d in ???
#7  0xffffffffffffffff in ???
#0  0x7ff0c4149d11 in ???
#1  0x7ff0c414a859 in ???
#2  0x7ff0c414b53f in ???
#3  0x5561ade480bc in ???
#4  0x5561ade4392e in ???
#5  0x7ff0c3de0082 in __libc_start_main
	at ../csu/libc-start.c:308
#6  0x5561ade4396d in ???
#7  0xffffffffffffffff in ???
#0  0x7f2c1cfc6d11 in ???
#1  0x7f2c1cfc7859 in ???
#2  0x7f2c1cfc853f in ???
#3  0x55f6928040bc in ???
#4  0x55f6927ff92e in ???
#5  0x7f2c1cc5d082 in __libc_start_main
	at ../csu/libc-start.c:308
#6  0x55f6927ff96d in ???
#7  0xffffffffffffffff in ???
