 running on    6 nodes
 distr:  one band on    1 nodes,    6 groups
 md.x 0.99
 POSCAR found :  1 types and     7056 ions
Rc and Rl:   5.500000  7.321000
 TIPO = eam     
 TIPO1 = uknown p
 Using EAM

 EAM parameters: 
 C  =   9.9634  EPS  = 0.2048  A  = 3.5678  M  = 3.127  N  =  6.366  R1 =   5.500000


 ----------------------------------------------------------------------------- 
|                                                                             |
|           W    W    AA    RRRRR   N    N  II  N    N   GGGG   !!!           |
|           W    W   A  A   R    R  NN   N  II  NN   N  G    G  !!!           |
|           W    W  A    A  R    R  N N  N  II  N N  N  G       !!!           |
|           W WW W  AAAAAA  RRRRR   N  N N  II  N  N N  G  GGG   !            |
|           WW  WW  A    A  R   R   N   NN  II  N   NN  G    G                |
|           W    W  A    A  R    R  N    N  II  N    N   GGGG   !!!           |
|                                                                             |
|      VASP found  21165 degrees of freedom                                   |
|      the temperature will equal 2*E(kin)/ (degrees of freedom)              |
|      this differs from previous releases, where T was 2*E(kin)/(3 NIONS).   |
|      The new definition is more consistent                                  |
|                                                                             |
 ----------------------------------------------------------------------------- 

 Random init:        4820       12391
 Random init:        4820       12391
 Random init:        4820       12391
 Random init:        4820       12391
 Random init:        4820       12391
 Random init:        4820       12391
 alloco spazio per displ
       10 T=  4436. E= -.27238955E+05 F= -.31283934E+05 EK= 0.40450E+04 SP= 0.00E+00 SK= 0.00E+00
       20 T=  4253. E= -.27238589E+05 F= -.31117326E+05 EK= 0.38787E+04 SP= 0.00E+00 SK= 0.00E+00
       30 T=  4275. E= -.27238821E+05 F= -.31137497E+05 EK= 0.38987E+04 SP= 0.00E+00 SK= 0.00E+00
       40 T=  4258. E= -.27238772E+05 F= -.31121422E+05 EK= 0.38827E+04 SP= 0.00E+00 SK= 0.00E+00
       50 T=  4225. E= -.27238659E+05 F= -.31091557E+05 EK= 0.38529E+04 SP= 0.00E+00 SK= 0.00E+00
       60 T=  4327. E= -.27238911E+05 F= -.31184531E+05 EK= 0.39456E+04 SP= 0.00E+00 SK= 0.00E+00
       70 T=  4272. E= -.27238692E+05 F= -.31134283E+05 EK= 0.38956E+04 SP= 0.00E+00 SK= 0.00E+00
       80 T=  4248. E= -.27238770E+05 F= -.31112981E+05 EK= 0.38742E+04 SP= 0.00E+00 SK= 0.00E+00
       90 T=  4286. E= -.27238861E+05 F= -.31147069E+05 EK= 0.39082E+04 SP= 0.00E+00 SK= 0.00E+00
      100 T=  4276. E= -.27238852E+05 F= -.31138055E+05 EK= 0.38992E+04 SP= 0.00E+00 SK= 0.00E+00
      110 T=  4254. E= -.27238813E+05 F= -.31118578E+05 EK= 0.38798E+04 SP= 0.00E+00 SK= 0.00E+00
      120 T=  4257. E= -.27238753E+05 F= -.31120981E+05 EK= 0.38822E+04 SP= 0.00E+00 SK= 0.00E+00
      130 T=  4246. E= -.27238631E+05 F= -.31111021E+05 EK= 0.38724E+04 SP= 0.00E+00 SK= 0.00E+00
      140 T=  4222. E= -.27238676E+05 F= -.31089075E+05 EK= 0.38504E+04 SP= 0.00E+00 SK= 0.00E+00
      150 T=  4218. E= -.27238637E+05 F= -.31084970E+05 EK= 0.38463E+04 SP= 0.00E+00 SK= 0.00E+00
      160 T=  4256. E= -.27238624E+05 F= -.31119722E+05 EK= 0.38811E+04 SP= 0.00E+00 SK= 0.00E+00
      170 T=  4236. E= -.27238617E+05 F= -.31101313E+05 EK= 0.38627E+04 SP= 0.00E+00 SK= 0.00E+00
      180 T=  4247. E= -.27238575E+05 F= -.31111628E+05 EK= 0.38731E+04 SP= 0.00E+00 SK= 0.00E+00
      190 T=  4260. E= -.27238554E+05 F= -.31123496E+05 EK= 0.38849E+04 SP= 0.00E+00 SK= 0.00E+00
      200 T=  4264. E= -.27238551E+05 F= -.31126809E+05 EK= 0.38883E+04 SP= 0.00E+00 SK= 0.00E+00
      210 T=  4283. E= -.27238718E+05 F= -.31144503E+05 EK= 0.39058E+04 SP= 0.00E+00 SK= 0.00E+00
      220 T=  4237. E= -.27238529E+05 F= -.31102362E+05 EK= 0.38638E+04 SP= 0.00E+00 SK= 0.00E+00
      230 T=  4271. E= -.27238665E+05 F= -.31133282E+05 EK= 0.38946E+04 SP= 0.00E+00 SK= 0.00E+00
      240 T=  4263. E= -.27238614E+05 F= -.31125957E+05 EK= 0.38873E+04 SP= 0.00E+00 SK= 0.00E+00
      250 T=  4295. E= -.27238712E+05 F= -.31155265E+05 EK= 0.39166E+04 SP= 0.00E+00 SK= 0.00E+00
      260 T=  4240. E= -.27238567E+05 F= -.31104833E+05 EK= 0.38663E+04 SP= 0.00E+00 SK= 0.00E+00
      270 T=  4251. E= -.27238598E+05 F= -.31114822E+05 EK= 0.38762E+04 SP= 0.00E+00 SK= 0.00E+00
      280 T=  4238. E= -.27238604E+05 F= -.31103487E+05 EK= 0.38649E+04 SP= 0.00E+00 SK= 0.00E+00
      290 T=  4202. E= -.27238613E+05 F= -.31070784E+05 EK= 0.38322E+04 SP= 0.00E+00 SK= 0.00E+00
      300 T=  4224. E= -.27238601E+05 F= -.31090354E+05 EK= 0.38518E+04 SP= 0.00E+00 SK= 0.00E+00
      310 T=  4217. E= -.27238614E+05 F= -.31084610E+05 EK= 0.38460E+04 SP= 0.00E+00 SK= 0.00E+00
      320 T=  4234. E= -.27238736E+05 F= -.31100110E+05 EK= 0.38614E+04 SP= 0.00E+00 SK= 0.00E+00
      330 T=  4228. E= -.27238644E+05 F= -.31094057E+05 EK= 0.38554E+04 SP= 0.00E+00 SK= 0.00E+00
      340 T=  4303. E= -.27238796E+05 F= -.31162836E+05 EK= 0.39240E+04 SP= 0.00E+00 SK= 0.00E+00
      350 T=  4269. E= -.27238749E+05 F= -.31131823E+05 EK= 0.38931E+04 SP= 0.00E+00 SK= 0.00E+00
      360 T=  4229. E= -.27238792E+05 F= -.31095081E+05 EK= 0.38563E+04 SP= 0.00E+00 SK= 0.00E+00
      370 T=  4225. E= -.27238848E+05 F= -.31092045E+05 EK= 0.38532E+04 SP= 0.00E+00 SK= 0.00E+00
      380 T=  4216. E= -.27238812E+05 F= -.31083684E+05 EK= 0.38449E+04 SP= 0.00E+00 SK= 0.00E+00
      390 T=  4189. E= -.27238769E+05 F= -.31058759E+05 EK= 0.38200E+04 SP= 0.00E+00 SK= 0.00E+00
      400 T=  4169. E= -.27238777E+05 F= -.31040799E+05 EK= 0.38020E+04 SP= 0.00E+00 SK= 0.00E+00
      410 T=  4187. E= -.27238824E+05 F= -.31056945E+05 EK= 0.38181E+04 SP= 0.00E+00 SK= 0.00E+00
      420 T=  4205. E= -.27238816E+05 F= -.31073549E+05 EK= 0.38347E+04 SP= 0.00E+00 SK= 0.00E+00
      430 T=  4237. E= -.27238844E+05 F= -.31102687E+05 EK= 0.38638E+04 SP= 0.00E+00 SK= 0.00E+00
      440 T=  4247. E= -.27238765E+05 F= -.31111598E+05 EK= 0.38728E+04 SP= 0.00E+00 SK= 0.00E+00
      450 T=  4284. E= -.27238926E+05 F= -.31145714E+05 EK= 0.39068E+04 SP= 0.00E+00 SK= 0.00E+00
      460 T=  4236. E= -.27238874E+05 F= -.31102028E+05 EK= 0.38632E+04 SP= 0.00E+00 SK= 0.00E+00
      470 T=  4204. E= -.27238884E+05 F= -.31072544E+05 EK= 0.38337E+04 SP= 0.00E+00 SK= 0.00E+00
      480 T=  4263. E= -.27238939E+05 F= -.31126867E+05 EK= 0.38879E+04 SP= 0.00E+00 SK= 0.00E+00
      490 T=  4284. E= -.27239019E+05 F= -.31146057E+05 EK= 0.39070E+04 SP= 0.00E+00 SK= 0.00E+00
      500 T=  4208. E= -.27238722E+05 F= -.31076334E+05 EK= 0.38376E+04 SP= 0.00E+00 SK= 0.00E+00
      510 T=  4269. E= -.27238890E+05 F= -.31132111E+05 EK= 0.38932E+04 SP= 0.00E+00 SK= 0.00E+00
      520 T=  4235. E= -.27238739E+05 F= -.31100782E+05 EK= 0.38620E+04 SP= 0.00E+00 SK= 0.00E+00
      530 T=  4258. E= -.27238876E+05 F= -.31121776E+05 EK= 0.38829E+04 SP= 0.00E+00 SK= 0.00E+00
      540 T=  4256. E= -.27238880E+05 F= -.31119757E+05 EK= 0.38809E+04 SP= 0.00E+00 SK= 0.00E+00
      550 T=  4262. E= -.27238787E+05 F= -.31125781E+05 EK= 0.38870E+04 SP= 0.00E+00 SK= 0.00E+00
      560 T=  4274. E= -.27238933E+05 F= -.31136461E+05 EK= 0.38975E+04 SP= 0.00E+00 SK= 0.00E+00
      570 T=  4209. E= -.27238922E+05 F= -.31077387E+05 EK= 0.38385E+04 SP= 0.00E+00 SK= 0.00E+00
      580 T=  4183. E= -.27238829E+05 F= -.31053635E+05 EK= 0.38148E+04 SP= 0.00E+00 SK= 0.00E+00
      590 T=  4194. E= -.27238924E+05 F= -.31063497E+05 EK= 0.38246E+04 SP= 0.00E+00 SK= 0.00E+00
      600 T=  4189. E= -.27238842E+05 F= -.31058633E+05 EK= 0.38198E+04 SP= 0.00E+00 SK= 0.00E+00
      610 T=  4234. E= -.27238933E+05 F= -.31100270E+05 EK= 0.38613E+04 SP= 0.00E+00 SK= 0.00E+00
      620 T=  4251. E= -.27238977E+05 F= -.31115324E+05 EK= 0.38763E+04 SP= 0.00E+00 SK= 0.00E+00
      630 T=  4230. E= -.27238893E+05 F= -.31096688E+05 EK= 0.38578E+04 SP= 0.00E+00 SK= 0.00E+00
      640 T=  4246. E= -.27238957E+05 F= -.31110774E+05 EK= 0.38718E+04 SP= 0.00E+00 SK= 0.00E+00
      650 T=  4244. E= -.27238870E+05 F= -.31109052E+05 EK= 0.38702E+04 SP= 0.00E+00 SK= 0.00E+00
      660 T=  4229. E= -.27238907E+05 F= -.31095643E+05 EK= 0.38567E+04 SP= 0.00E+00 SK= 0.00E+00
      670 T=  4226. E= -.27238885E+05 F= -.31092574E+05 EK= 0.38537E+04 SP= 0.00E+00 SK= 0.00E+00
      680 T=  4228. E= -.27238880E+05 F= -.31094216E+05 EK= 0.38553E+04 SP= 0.00E+00 SK= 0.00E+00
      690 T=  4243. E= -.27238903E+05 F= -.31108327E+05 EK= 0.38694E+04 SP= 0.00E+00 SK= 0.00E+00
      700 T=  4278. E= -.27238932E+05 F= -.31140565E+05 EK= 0.39016E+04 SP= 0.00E+00 SK= 0.00E+00
      710 T=  4233. E= -.27238772E+05 F= -.31098869E+05 EK= 0.38601E+04 SP= 0.00E+00 SK= 0.00E+00
      720 T=  4251. E= -.27238803E+05 F= -.31115781E+05 EK= 0.38770E+04 SP= 0.00E+00 SK= 0.00E+00
      730 T=  4263. E= -.27238807E+05 F= -.31126631E+05 EK= 0.38878E+04 SP= 0.00E+00 SK= 0.00E+00
      740 T=  4226. E= -.27238799E+05 F= -.31093041E+05 EK= 0.38542E+04 SP= 0.00E+00 SK= 0.00E+00
      750 T=  4200. E= -.27238806E+05 F= -.31068943E+05 EK= 0.38301E+04 SP= 0.00E+00 SK= 0.00E+00
      760 T=  4178. E= -.27238804E+05 F= -.31049303E+05 EK= 0.38105E+04 SP= 0.00E+00 SK= 0.00E+00
      770 T=  4174. E= -.27238736E+05 F= -.31045451E+05 EK= 0.38067E+04 SP= 0.00E+00 SK= 0.00E+00
      780 T=  4191. E= -.27238812E+05 F= -.31060849E+05 EK= 0.38220E+04 SP= 0.00E+00 SK= 0.00E+00
      790 T=  4190. E= -.27238749E+05 F= -.31059689E+05 EK= 0.38209E+04 SP= 0.00E+00 SK= 0.00E+00
      800 T=  4238. E= -.27238767E+05 F= -.31103371E+05 EK= 0.38646E+04 SP= 0.00E+00 SK= 0.00E+00
      810 T=  4278. E= -.27238789E+05 F= -.31139869E+05 EK= 0.39011E+04 SP= 0.00E+00 SK= 0.00E+00
      820 T=  4217. E= -.27238686E+05 F= -.31084365E+05 EK= 0.38457E+04 SP= 0.00E+00 SK= 0.00E+00
      830 T=  4207. E= -.27238742E+05 F= -.31075442E+05 EK= 0.38367E+04 SP= 0.00E+00 SK= 0.00E+00
      840 T=  4239. E= -.27238845E+05 F= -.31104221E+05 EK= 0.38654E+04 SP= 0.00E+00 SK= 0.00E+00
      850 T=  4229. E= -.27238796E+05 F= -.31095461E+05 EK= 0.38567E+04 SP= 0.00E+00 SK= 0.00E+00
      860 T=  4235. E= -.27238816E+05 F= -.31100647E+05 EK= 0.38618E+04 SP= 0.00E+00 SK= 0.00E+00
      870 T=  4220. E= -.27238826E+05 F= -.31087142E+05 EK= 0.38483E+04 SP= 0.00E+00 SK= 0.00E+00
      880 T=  4233. E= -.27238889E+05 F= -.31098715E+05 EK= 0.38598E+04 SP= 0.00E+00 SK= 0.00E+00
      890 T=  4258. E= -.27238975E+05 F= -.31121704E+05 EK= 0.38827E+04 SP= 0.00E+00 SK= 0.00E+00
      900 T=  4210. E= -.27238840E+05 F= -.31077786E+05 EK= 0.38389E+04 SP= 0.00E+00 SK= 0.00E+00
      910 T=  4206. E= -.27238980E+05 F= -.31075024E+05 EK= 0.38360E+04 SP= 0.00E+00 SK= 0.00E+00
      920 T=  4185. E= -.27238905E+05 F= -.31055350E+05 EK= 0.38164E+04 SP= 0.00E+00 SK= 0.00E+00
      930 T=  4194. E= -.27238939E+05 F= -.31063181E+05 EK= 0.38242E+04 SP= 0.00E+00 SK= 0.00E+00
      940 T=  4177. E= -.27238898E+05 F= -.31047632E+05 EK= 0.38087E+04 SP= 0.00E+00 SK= 0.00E+00
      950 T=  4181. E= -.27238855E+05 F= -.31051873E+05 EK= 0.38130E+04 SP= 0.00E+00 SK= 0.00E+00
      960 T=  4234. E= -.27238922E+05 F= -.31100195E+05 EK= 0.38613E+04 SP= 0.00E+00 SK= 0.00E+00
      970 T=  4198. E= -.27238826E+05 F= -.31066976E+05 EK= 0.38282E+04 SP= 0.00E+00 SK= 0.00E+00
      980 T=  4199. E= -.27238861E+05 F= -.31068404E+05 EK= 0.38295E+04 SP= 0.00E+00 SK= 0.00E+00
      990 T=  4212. E= -.27238921E+05 F= -.31079608E+05 EK= 0.38407E+04 SP= 0.00E+00 SK= 0.00E+00
     1000 T=  4191. E= -.27238798E+05 F= -.31061070E+05 EK= 0.38223E+04 SP= 0.00E+00 SK= 0.00E+00
     1010 T=  4250. E= -.27238916E+05 F= -.31114239E+05 EK= 0.38753E+04 SP= 0.00E+00 SK= 0.00E+00
     1020 T=  4227. E= -.27238789E+05 F= -.31093117E+05 EK= 0.38543E+04 SP= 0.00E+00 SK= 0.00E+00
     1030 T=  4218. E= -.27238882E+05 F= -.31085794E+05 EK= 0.38469E+04 SP= 0.00E+00 SK= 0.00E+00
     1040 T=  4184. E= -.27238765E+05 F= -.31054298E+05 EK= 0.38155E+04 SP= 0.00E+00 SK= 0.00E+00
     1050 T=  4219. E= -.27238883E+05 F= -.31086767E+05 EK= 0.38479E+04 SP= 0.00E+00 SK= 0.00E+00
     1060 T=  4236. E= -.27238907E+05 F= -.31101792E+05 EK= 0.38629E+04 SP= 0.00E+00 SK= 0.00E+00
     1070 T=  4226. E= -.27238878E+05 F= -.31093102E+05 EK= 0.38542E+04 SP= 0.00E+00 SK= 0.00E+00
     1080 T=  4211. E= -.27238928E+05 F= -.31078847E+05 EK= 0.38399E+04 SP= 0.00E+00 SK= 0.00E+00
     1090 T=  4176. E= -.27238792E+05 F= -.31047389E+05 EK= 0.38086E+04 SP= 0.00E+00 SK= 0.00E+00
     1100 T=  4238. E= -.27238973E+05 F= -.31103978E+05 EK= 0.38650E+04 SP= 0.00E+00 SK= 0.00E+00
     1110 T=  4207. E= -.27238933E+05 F= -.31075776E+05 EK= 0.38368E+04 SP= 0.00E+00 SK= 0.00E+00
     1120 T=  4164. E= -.27238847E+05 F= -.31036255E+05 EK= 0.37974E+04 SP= 0.00E+00 SK= 0.00E+00
     1130 T=  4195. E= -.27238994E+05 F= -.31064519E+05 EK= 0.38255E+04 SP= 0.00E+00 SK= 0.00E+00
     1140 T=  4143. E= -.27238901E+05 F= -.31017092E+05 EK= 0.37782E+04 SP= 0.00E+00 SK= 0.00E+00
     1150 T=  4127. E= -.27238800E+05 F= -.31002111E+05 EK= 0.37633E+04 SP= 0.00E+00 SK= 0.00E+00
     1160 T=  4168. E= -.27238851E+05 F= -.31040117E+05 EK= 0.38013E+04 SP= 0.00E+00 SK= 0.00E+00
     1170 T=  4167. E= -.27238826E+05 F= -.31038920E+05 EK= 0.38001E+04 SP= 0.00E+00 SK= 0.00E+00
     1180 T=  4160. E= -.27238814E+05 F= -.31032466E+05 EK= 0.37937E+04 SP= 0.00E+00 SK= 0.00E+00
     1190 T=  4174. E= -.27238832E+05 F= -.31045483E+05 EK= 0.38067E+04 SP= 0.00E+00 SK= 0.00E+00
     1200 T=  4167. E= -.27238781E+05 F= -.31039154E+05 EK= 0.38004E+04 SP= 0.00E+00 SK= 0.00E+00
     1210 T=  4143. E= -.27238712E+05 F= -.31016854E+05 EK= 0.37781E+04 SP= 0.00E+00 SK= 0.00E+00
     1220 T=  4170. E= -.27238635E+05 F= -.31041300E+05 EK= 0.38027E+04 SP= 0.00E+00 SK= 0.00E+00
     1230 T=  4237. E= -.27238766E+05 F= -.31102368E+05 EK= 0.38636E+04 SP= 0.00E+00 SK= 0.00E+00
     1240 T=  4212. E= -.27238753E+05 F= -.31080272E+05 EK= 0.38415E+04 SP= 0.00E+00 SK= 0.00E+00
     1250 T=  4152. E= -.27238607E+05 F= -.31024839E+05 EK= 0.37862E+04 SP= 0.00E+00 SK= 0.00E+00
     1260 T=  4187. E= -.27238853E+05 F= -.31057493E+05 EK= 0.38186E+04 SP= 0.00E+00 SK= 0.00E+00
     1270 T=  4160. E= -.27238667E+05 F= -.31032678E+05 EK= 0.37940E+04 SP= 0.00E+00 SK= 0.00E+00
     1280 T=  4196. E= -.27238747E+05 F= -.31065048E+05 EK= 0.38263E+04 SP= 0.00E+00 SK= 0.00E+00
     1290 T=  4195. E= -.27238700E+05 F= -.31064273E+05 EK= 0.38256E+04 SP= 0.00E+00 SK= 0.00E+00
     1300 T=  4186. E= -.27238779E+05 F= -.31056358E+05 EK= 0.38176E+04 SP= 0.00E+00 SK= 0.00E+00
     1310 T=  4131. E= -.27238625E+05 F= -.31006203E+05 EK= 0.37676E+04 SP= 0.00E+00 SK= 0.00E+00
     1320 T=  4179. E= -.27238728E+05 F= -.31049674E+05 EK= 0.38109E+04 SP= 0.00E+00 SK= 0.00E+00
     1330 T=  4189. E= -.27238748E+05 F= -.31058798E+05 EK= 0.38201E+04 SP= 0.00E+00 SK= 0.00E+00
     1340 T=  4136. E= -.27238612E+05 F= -.31010783E+05 EK= 0.37722E+04 SP= 0.00E+00 SK= 0.00E+00
     1350 T=  4164. E= -.27238739E+05 F= -.31035952E+05 EK= 0.37972E+04 SP= 0.00E+00 SK= 0.00E+00
     1360 T=  4159. E= -.27238622E+05 F= -.31031666E+05 EK= 0.37930E+04 SP= 0.00E+00 SK= 0.00E+00
     1370 T=  4172. E= -.27238804E+05 F= -.31043667E+05 EK= 0.38049E+04 SP= 0.00E+00 SK= 0.00E+00
     1380 T=  4157. E= -.27238670E+05 F= -.31029909E+05 EK= 0.37912E+04 SP= 0.00E+00 SK= 0.00E+00
     1390 T=  4180. E= -.27238809E+05 F= -.31050428E+05 EK= 0.38116E+04 SP= 0.00E+00 SK= 0.00E+00
     1400 T=  4148. E= -.27238681E+05 F= -.31021691E+05 EK= 0.37830E+04 SP= 0.00E+00 SK= 0.00E+00
     1410 T=  4183. E= -.27238837E+05 F= -.31053653E+05 EK= 0.38148E+04 SP= 0.00E+00 SK= 0.00E+00
     1420 T=  4177. E= -.27238770E+05 F= -.31048222E+05 EK= 0.38095E+04 SP= 0.00E+00 SK= 0.00E+00
     1430 T=  4182. E= -.27238708E+05 F= -.31052235E+05 EK= 0.38135E+04 SP= 0.00E+00 SK= 0.00E+00
     1440 T=  4162. E= -.27238616E+05 F= -.31033779E+05 EK= 0.37952E+04 SP= 0.00E+00 SK= 0.00E+00
     1450 T=  4149. E= -.27238568E+05 F= -.31022047E+05 EK= 0.37835E+04 SP= 0.00E+00 SK= 0.00E+00
     1460 T=  4179. E= -.27238662E+05 F= -.31049491E+05 EK= 0.38108E+04 SP= 0.00E+00 SK= 0.00E+00
     1470 T=  4162. E= -.27238517E+05 F= -.31033814E+05 EK= 0.37953E+04 SP= 0.00E+00 SK= 0.00E+00
     1480 T=  4193. E= -.27238671E+05 F= -.31062465E+05 EK= 0.38238E+04 SP= 0.00E+00 SK= 0.00E+00
     1490 T=  4172. E= -.27238499E+05 F= -.31042709E+05 EK= 0.38042E+04 SP= 0.00E+00 SK= 0.00E+00
     1500 T=  4201. E= -.27238656E+05 F= -.31069781E+05 EK= 0.38311E+04 SP= 0.00E+00 SK= 0.00E+00
     1510 T=  4170. E= -.27238516E+05 F= -.31040939E+05 EK= 0.38024E+04 SP= 0.00E+00 SK= 0.00E+00
     1520 T=  4168. E= -.27238478E+05 F= -.31039024E+05 EK= 0.38005E+04 SP= 0.00E+00 SK= 0.00E+00
     1530 T=  4183. E= -.27238419E+05 F= -.31053272E+05 EK= 0.38149E+04 SP= 0.00E+00 SK= 0.00E+00
     1540 T=  4179. E= -.27238411E+05 F= -.31049195E+05 EK= 0.38108E+04 SP= 0.00E+00 SK= 0.00E+00
     1550 T=  4185. E= -.27238511E+05 F= -.31055366E+05 EK= 0.38169E+04 SP= 0.00E+00 SK= 0.00E+00
     1560 T=  4190. E= -.27238375E+05 F= -.31059252E+05 EK= 0.38209E+04 SP= 0.00E+00 SK= 0.00E+00
     1570 T=  4223. E= -.27238459E+05 F= -.31089423E+05 EK= 0.38510E+04 SP= 0.00E+00 SK= 0.00E+00
     1580 T=  4204. E= -.27238420E+05 F= -.31072146E+05 EK= 0.38337E+04 SP= 0.00E+00 SK= 0.00E+00
     1590 T=  4174. E= -.27238361E+05 F= -.31044325E+05 EK= 0.38060E+04 SP= 0.00E+00 SK= 0.00E+00
     1600 T=  4132. E= -.27238296E+05 F= -.31006864E+05 EK= 0.37686E+04 SP= 0.00E+00 SK= 0.00E+00
     1610 T=  4214. E= -.27238427E+05 F= -.31081093E+05 EK= 0.38427E+04 SP= 0.00E+00 SK= 0.00E+00
     1620 T=  4245. E= -.27238450E+05 F= -.31109223E+05 EK= 0.38708E+04 SP= 0.00E+00 SK= 0.00E+00
     1630 T=  4165. E= -.27238253E+05 F= -.31036508E+05 EK= 0.37983E+04 SP= 0.00E+00 SK= 0.00E+00
     1640 T=  4181. E= -.27238359E+05 F= -.31050933E+05 EK= 0.38126E+04 SP= 0.00E+00 SK= 0.00E+00
     1650 T=  4173. E= -.27238357E+05 F= -.31043881E+05 EK= 0.38055E+04 SP= 0.00E+00 SK= 0.00E+00
     1660 T=  4180. E= -.27238384E+05 F= -.31049869E+05 EK= 0.38115E+04 SP= 0.00E+00 SK= 0.00E+00
     1670 T=  4157. E= -.27238313E+05 F= -.31029526E+05 EK= 0.37912E+04 SP= 0.00E+00 SK= 0.00E+00
     1680 T=  4149. E= -.27238287E+05 F= -.31021727E+05 EK= 0.37834E+04 SP= 0.00E+00 SK= 0.00E+00
     1690 T=  4185. E= -.27238393E+05 F= -.31054693E+05 EK= 0.38163E+04 SP= 0.00E+00 SK= 0.00E+00
     1700 T=  4176. E= -.27238290E+05 F= -.31046445E+05 EK= 0.38082E+04 SP= 0.00E+00 SK= 0.00E+00
     1710 T=  4187. E= -.27238276E+05 F= -.31056117E+05 EK= 0.38178E+04 SP= 0.00E+00 SK= 0.00E+00
     1720 T=  4162. E= -.27238293E+05 F= -.31033942E+05 EK= 0.37956E+04 SP= 0.00E+00 SK= 0.00E+00
     1730 T=  4168. E= -.27238349E+05 F= -.31038872E+05 EK= 0.38005E+04 SP= 0.00E+00 SK= 0.00E+00
     1740 T=  4171. E= -.27238378E+05 F= -.31041845E+05 EK= 0.38035E+04 SP= 0.00E+00 SK= 0.00E+00
     1750 T=  4167. E= -.27238409E+05 F= -.31038664E+05 EK= 0.38003E+04 SP= 0.00E+00 SK= 0.00E+00
     1760 T=  4197. E= -.27238344E+05 F= -.31065284E+05 EK= 0.38269E+04 SP= 0.00E+00 SK= 0.00E+00
     1770 T=  4217. E= -.27238429E+05 F= -.31084038E+05 EK= 0.38456E+04 SP= 0.00E+00 SK= 0.00E+00
     1780 T=  4166. E= -.27238303E+05 F= -.31037845E+05 EK= 0.37995E+04 SP= 0.00E+00 SK= 0.00E+00
     1790 T=  4183. E= -.27238342E+05 F= -.31053169E+05 EK= 0.38148E+04 SP= 0.00E+00 SK= 0.00E+00
     1800 T=  4175. E= -.27238327E+05 F= -.31045930E+05 EK= 0.38076E+04 SP= 0.00E+00 SK= 0.00E+00
     1810 T=  4163. E= -.27238220E+05 F= -.31034469E+05 EK= 0.37962E+04 SP= 0.00E+00 SK= 0.00E+00
     1820 T=  4222. E= -.27238425E+05 F= -.31088312E+05 EK= 0.38499E+04 SP= 0.00E+00 SK= 0.00E+00
     1830 T=  4149. E= -.27238270E+05 F= -.31021640E+05 EK= 0.37834E+04 SP= 0.00E+00 SK= 0.00E+00
     1840 T=  4123. E= -.27238173E+05 F= -.30998381E+05 EK= 0.37602E+04 SP= 0.00E+00 SK= 0.00E+00
     1850 T=  4170. E= -.27238419E+05 F= -.31040983E+05 EK= 0.38026E+04 SP= 0.00E+00 SK= 0.00E+00
     1860 T=  4127. E= -.27238132E+05 F= -.31001696E+05 EK= 0.37636E+04 SP= 0.00E+00 SK= 0.00E+00
     1870 T=  4188. E= -.27238328E+05 F= -.31057445E+05 EK= 0.38191E+04 SP= 0.00E+00 SK= 0.00E+00
     1880 T=  4156. E= -.27238404E+05 F= -.31028464E+05 EK= 0.37901E+04 SP= 0.00E+00 SK= 0.00E+00
     1890 T=  4129. E= -.27238296E+05 F= -.31003993E+05 EK= 0.37657E+04 SP= 0.00E+00 SK= 0.00E+00
     1900 T=  4201. E= -.27238532E+05 F= -.31069147E+05 EK= 0.38306E+04 SP= 0.00E+00 SK= 0.00E+00
     1910 T=  4179. E= -.27238503E+05 F= -.31049738E+05 EK= 0.38112E+04 SP= 0.00E+00 SK= 0.00E+00
     1920 T=  4127. E= -.27238408E+05 F= -.31001852E+05 EK= 0.37634E+04 SP= 0.00E+00 SK= 0.00E+00
     1930 T=  4185. E= -.27238439E+05 F= -.31055315E+05 EK= 0.38169E+04 SP= 0.00E+00 SK= 0.00E+00
     1940 T=  4218. E= -.27238513E+05 F= -.31085479E+05 EK= 0.38470E+04 SP= 0.00E+00 SK= 0.00E+00
     1950 T=  4162. E= -.27238386E+05 F= -.31034092E+05 EK= 0.37957E+04 SP= 0.00E+00 SK= 0.00E+00
     1960 T=  4191. E= -.27238443E+05 F= -.31060633E+05 EK= 0.38222E+04 SP= 0.00E+00 SK= 0.00E+00
     1970 T=  4189. E= -.27238511E+05 F= -.31058351E+05 EK= 0.38198E+04 SP= 0.00E+00 SK= 0.00E+00
     1980 T=  4108. E= -.27238275E+05 F= -.30984461E+05 EK= 0.37462E+04 SP= 0.00E+00 SK= 0.00E+00
     1990 T=  4159. E= -.27238427E+05 F= -.31031345E+05 EK= 0.37929E+04 SP= 0.00E+00 SK= 0.00E+00
At line 1940 of file md.f90
Fortran runtime error: Unit number is negative and unit was not already opened with OPEN(NEWUNIT=...)

Error termination. Backtrace:
At line 1940 of file md.f90
Fortran runtime error: Unit number is negative and unit was not already opened with OPEN(NEWUNIT=...)

Error termination. Backtrace:
At line 1940 of file md.f90
Fortran runtime error: Unit number is negative and unit was not already opened with OPEN(NEWUNIT=...)

Error termination. Backtrace:
At line 1940 of file md.f90
Fortran runtime error: Unit number is negative and unit was not already opened with OPEN(NEWUNIT=...)

Error termination. Backtrace:
At line 1940 of file md.f90
Fortran runtime error: Unit number is negative and unit was not already opened with OPEN(NEWUNIT=...)

Error termination. Backtrace:
     2000 T=  4153. E= -.27238461E+05 F= -.31025808E+05 EK= 0.37873E+04 SP= 0.00E+00 SK= 0.00E+00
Rc and Rl:   5.500000  7.321000

Average number of steps between two list updates:  18.18
Average number of atoms in the shell:     0.01
#0  0x7f87f0058d11 in ???
#1  0x7f87f0059859 in ???
#2  0x7f87f005a53f in ???
#3  0x55b2889760bc in ???
#4  0x55b28897192e in ???
#5  0x7f87efcef082 in __libc_start_main
	at ../csu/libc-start.c:308
#6  0x55b28897196d in ???
#7  0xffffffffffffffff in ???
#0  0x7f8439b9bd11 in ???
#1  0x7f8439b9c859 in ???
#2  0x7f8439b9d53f in ???
#3  0x556a81f790bc in ???
#4  0x556a81f7492e in ???
#5  0x7f8439832082 in __libc_start_main
	at ../csu/libc-start.c:308
#6  0x556a81f7496d in ???
#7  0xffffffffffffffff in ???
#0  0x7f584938ed11 in ???
#1  0x7f584938f859 in ???
#2  0x7f584939053f in ???
#3  0x55c34e31e0bc in ???
#4  0x55c34e31992e in ???
#5  0x7f5849025082 in __libc_start_main
	at ../csu/libc-start.c:308
#6  0x55c34e31996d in ???
#7  0xffffffffffffffff in ???
#0  0x7fe42b0d5d11 in ???
#1  0x7fe42b0d6859 in ???
#2  0x7fe42b0d753f in ???
#3  0x5556efe510bc in ???
#4  0x5556efe4c92e in ???
#5  0x7fe42ad6c082 in __libc_start_main
	at ../csu/libc-start.c:308
#6  0x5556efe4c96d in ???
#7  0xffffffffffffffff in ???
