 running on    6 nodes
 distr:  one band on    1 nodes,    6 groups
 md.x 0.99
 POSCAR found :  1 types and     7056 ions
Rc and Rl:   5.500000  7.321000
 TIPO = eam     
 TIPO1 = uknown p
 Using EAM

 EAM parameters: 
 C  =   9.9634  EPS  = 0.2048  A  = 3.5678  M  = 3.127  N  =  6.366  R1 =   5.500000


 ----------------------------------------------------------------------------- 
|                                                                             |
|           W    W    AA    RRRRR   N    N  II  N    N   GGGG   !!!           |
|           W    W   A  A   R    R  NN   N  II  NN   N  G    G  !!!           |
|           W    W  A    A  R    R  N N  N  II  N N  N  G       !!!           |
|           W WW W  AAAAAA  RRRRR   N  N N  II  N  N N  G  GGG   !            |
|           WW  WW  A    A  R   R   N   NN  II  N   NN  G    G                |
|           W    W  A    A  R    R  N    N  II  N    N   GGGG   !!!           |
|                                                                             |
|      VASP found  21165 degrees of freedom                                   |
|      the temperature will equal 2*E(kin)/ (degrees of freedom)              |
|      this differs from previous releases, where T was 2*E(kin)/(3 NIONS).   |
|      The new definition is more consistent                                  |
|                                                                             |
 ----------------------------------------------------------------------------- 

 Random init:       24237        1808
 Random init:       24237        1808
 alloco spazio per displ
 Random init:       24237        1808
 Random init:       24237        1808
 Random init:       24237        1808
 Random init:       24237        1808
       10 T=  4468. E= -.27072751E+05 F= -.31147508E+05 EK= 0.40748E+04 SP= 0.00E+00 SK= 0.00E+00
       20 T=  4357. E= -.27072388E+05 F= -.31045255E+05 EK= 0.39729E+04 SP= 0.00E+00 SK= 0.00E+00
       30 T=  4382. E= -.27072581E+05 F= -.31068365E+05 EK= 0.39958E+04 SP= 0.00E+00 SK= 0.00E+00
       40 T=  4348. E= -.27072503E+05 F= -.31037394E+05 EK= 0.39649E+04 SP= 0.00E+00 SK= 0.00E+00
       50 T=  4376. E= -.27072619E+05 F= -.31063533E+05 EK= 0.39909E+04 SP= 0.00E+00 SK= 0.00E+00
       60 T=  4352. E= -.27072622E+05 F= -.31041030E+05 EK= 0.39684E+04 SP= 0.00E+00 SK= 0.00E+00
       70 T=  4282. E= -.27072615E+05 F= -.30977967E+05 EK= 0.39054E+04 SP= 0.00E+00 SK= 0.00E+00
       80 T=  4283. E= -.27072672E+05 F= -.30978784E+05 EK= 0.39061E+04 SP= 0.00E+00 SK= 0.00E+00
       90 T=  4338. E= -.27072689E+05 F= -.31028389E+05 EK= 0.39557E+04 SP= 0.00E+00 SK= 0.00E+00
      100 T=  4341. E= -.27072529E+05 F= -.31031127E+05 EK= 0.39586E+04 SP= 0.00E+00 SK= 0.00E+00
      110 T=  4387. E= -.27072690E+05 F= -.31072926E+05 EK= 0.40002E+04 SP= 0.00E+00 SK= 0.00E+00
      120 T=  4321. E= -.27072525E+05 F= -.31013000E+05 EK= 0.39405E+04 SP= 0.00E+00 SK= 0.00E+00
      130 T=  4323. E= -.27072633E+05 F= -.31015062E+05 EK= 0.39424E+04 SP= 0.00E+00 SK= 0.00E+00
      140 T=  4314. E= -.27072621E+05 F= -.31006388E+05 EK= 0.39338E+04 SP= 0.00E+00 SK= 0.00E+00
      150 T=  4287. E= -.27072528E+05 F= -.30982082E+05 EK= 0.39096E+04 SP= 0.00E+00 SK= 0.00E+00
      160 T=  4294. E= -.27072577E+05 F= -.30988808E+05 EK= 0.39162E+04 SP= 0.00E+00 SK= 0.00E+00
      170 T=  4278. E= -.27072582E+05 F= -.30973393E+05 EK= 0.39008E+04 SP= 0.00E+00 SK= 0.00E+00
      180 T=  4274. E= -.27072491E+05 F= -.30970391E+05 EK= 0.38979E+04 SP= 0.00E+00 SK= 0.00E+00
      190 T=  4285. E= -.27072596E+05 F= -.30980384E+05 EK= 0.39078E+04 SP= 0.00E+00 SK= 0.00E+00
      200 T=  4265. E= -.27072516E+05 F= -.30962334E+05 EK= 0.38898E+04 SP= 0.00E+00 SK= 0.00E+00
      210 T=  4289. E= -.27072518E+05 F= -.30983611E+05 EK= 0.39111E+04 SP= 0.00E+00 SK= 0.00E+00
      220 T=  4350. E= -.27072701E+05 F= -.31039379E+05 EK= 0.39667E+04 SP= 0.00E+00 SK= 0.00E+00
      230 T=  4331. E= -.27072571E+05 F= -.31022079E+05 EK= 0.39495E+04 SP= 0.00E+00 SK= 0.00E+00
      240 T=  4282. E= -.27072591E+05 F= -.30977266E+05 EK= 0.39047E+04 SP= 0.00E+00 SK= 0.00E+00
      250 T=  4267. E= -.27072515E+05 F= -.30963779E+05 EK= 0.38913E+04 SP= 0.00E+00 SK= 0.00E+00
      260 T=  4293. E= -.27072660E+05 F= -.30987964E+05 EK= 0.39153E+04 SP= 0.00E+00 SK= 0.00E+00
      270 T=  4282. E= -.27072529E+05 F= -.30977814E+05 EK= 0.39053E+04 SP= 0.00E+00 SK= 0.00E+00
      280 T=  4348. E= -.27072736E+05 F= -.31037377E+05 EK= 0.39646E+04 SP= 0.00E+00 SK= 0.00E+00
      290 T=  4311. E= -.27072629E+05 F= -.31003822E+05 EK= 0.39312E+04 SP= 0.00E+00 SK= 0.00E+00
      300 T=  4298. E= -.27072721E+05 F= -.30992571E+05 EK= 0.39198E+04 SP= 0.00E+00 SK= 0.00E+00
      310 T=  4278. E= -.27072711E+05 F= -.30974080E+05 EK= 0.39014E+04 SP= 0.00E+00 SK= 0.00E+00
      320 T=  4293. E= -.27072629E+05 F= -.30987218E+05 EK= 0.39146E+04 SP= 0.00E+00 SK= 0.00E+00
      330 T=  4342. E= -.27072696E+05 F= -.31031970E+05 EK= 0.39593E+04 SP= 0.00E+00 SK= 0.00E+00
      340 T=  4327. E= -.27072737E+05 F= -.31018936E+05 EK= 0.39462E+04 SP= 0.00E+00 SK= 0.00E+00
      350 T=  4329. E= -.27072718E+05 F= -.31020862E+05 EK= 0.39481E+04 SP= 0.00E+00 SK= 0.00E+00
      360 T=  4359. E= -.27072758E+05 F= -.31047965E+05 EK= 0.39752E+04 SP= 0.00E+00 SK= 0.00E+00
      370 T=  4342. E= -.27072785E+05 F= -.31032066E+05 EK= 0.39593E+04 SP= 0.00E+00 SK= 0.00E+00
      380 T=  4338. E= -.27072787E+05 F= -.31029022E+05 EK= 0.39562E+04 SP= 0.00E+00 SK= 0.00E+00
      390 T=  4338. E= -.27072825E+05 F= -.31029247E+05 EK= 0.39564E+04 SP= 0.00E+00 SK= 0.00E+00
      400 T=  4287. E= -.27072814E+05 F= -.30982139E+05 EK= 0.39093E+04 SP= 0.00E+00 SK= 0.00E+00
      410 T=  4266. E= -.27072766E+05 F= -.30963298E+05 EK= 0.38905E+04 SP= 0.00E+00 SK= 0.00E+00
      420 T=  4315. E= -.27072875E+05 F= -.31007782E+05 EK= 0.39349E+04 SP= 0.00E+00 SK= 0.00E+00
      430 T=  4363. E= -.27072993E+05 F= -.31052186E+05 EK= 0.39792E+04 SP= 0.00E+00 SK= 0.00E+00
      440 T=  4305. E= -.27072854E+05 F= -.30999114E+05 EK= 0.39263E+04 SP= 0.00E+00 SK= 0.00E+00
      450 T=  4304. E= -.27072911E+05 F= -.30997627E+05 EK= 0.39247E+04 SP= 0.00E+00 SK= 0.00E+00
      460 T=  4339. E= -.27072935E+05 F= -.31029614E+05 EK= 0.39567E+04 SP= 0.00E+00 SK= 0.00E+00
      470 T=  4384. E= -.27072989E+05 F= -.31071047E+05 EK= 0.39981E+04 SP= 0.00E+00 SK= 0.00E+00
      480 T=  4347. E= -.27072910E+05 F= -.31037429E+05 EK= 0.39645E+04 SP= 0.00E+00 SK= 0.00E+00
      490 T=  4330. E= -.27073011E+05 F= -.31021843E+05 EK= 0.39488E+04 SP= 0.00E+00 SK= 0.00E+00
      500 T=  4337. E= -.27072957E+05 F= -.31028343E+05 EK= 0.39554E+04 SP= 0.00E+00 SK= 0.00E+00
      510 T=  4348. E= -.27072944E+05 F= -.31038167E+05 EK= 0.39652E+04 SP= 0.00E+00 SK= 0.00E+00
      520 T=  4368. E= -.27072976E+05 F= -.31055949E+05 EK= 0.39830E+04 SP= 0.00E+00 SK= 0.00E+00
      530 T=  4347. E= -.27072919E+05 F= -.31036748E+05 EK= 0.39638E+04 SP= 0.00E+00 SK= 0.00E+00
      540 T=  4342. E= -.27072911E+05 F= -.31032777E+05 EK= 0.39599E+04 SP= 0.00E+00 SK= 0.00E+00
      550 T=  4354. E= -.27073052E+05 F= -.31043867E+05 EK= 0.39708E+04 SP= 0.00E+00 SK= 0.00E+00
      560 T=  4280. E= -.27072745E+05 F= -.30975647E+05 EK= 0.39029E+04 SP= 0.00E+00 SK= 0.00E+00
      570 T=  4310. E= -.27072953E+05 F= -.31002985E+05 EK= 0.39300E+04 SP= 0.00E+00 SK= 0.00E+00
      580 T=  4298. E= -.27072859E+05 F= -.30992070E+05 EK= 0.39192E+04 SP= 0.00E+00 SK= 0.00E+00
      590 T=  4314. E= -.27072868E+05 F= -.31006814E+05 EK= 0.39339E+04 SP= 0.00E+00 SK= 0.00E+00
      600 T=  4324. E= -.27072832E+05 F= -.31015991E+05 EK= 0.39432E+04 SP= 0.00E+00 SK= 0.00E+00
      610 T=  4331. E= -.27072815E+05 F= -.31022831E+05 EK= 0.39500E+04 SP= 0.00E+00 SK= 0.00E+00
      620 T=  4356. E= -.27072846E+05 F= -.31045139E+05 EK= 0.39723E+04 SP= 0.00E+00 SK= 0.00E+00
      630 T=  4357. E= -.27072795E+05 F= -.31045834E+05 EK= 0.39730E+04 SP= 0.00E+00 SK= 0.00E+00
      640 T=  4367. E= -.27072876E+05 F= -.31055595E+05 EK= 0.39827E+04 SP= 0.00E+00 SK= 0.00E+00
      650 T=  4329. E= -.27072782E+05 F= -.31020912E+05 EK= 0.39481E+04 SP= 0.00E+00 SK= 0.00E+00
      660 T=  4320. E= -.27072844E+05 F= -.31012335E+05 EK= 0.39395E+04 SP= 0.00E+00 SK= 0.00E+00
      670 T=  4313. E= -.27072767E+05 F= -.31006052E+05 EK= 0.39333E+04 SP= 0.00E+00 SK= 0.00E+00
      680 T=  4349. E= -.27072829E+05 F= -.31039255E+05 EK= 0.39664E+04 SP= 0.00E+00 SK= 0.00E+00
      690 T=  4271. E= -.27072650E+05 F= -.30967908E+05 EK= 0.38953E+04 SP= 0.00E+00 SK= 0.00E+00
      700 T=  4293. E= -.27072855E+05 F= -.30987445E+05 EK= 0.39146E+04 SP= 0.00E+00 SK= 0.00E+00
      710 T=  4301. E= -.27072873E+05 F= -.30995476E+05 EK= 0.39226E+04 SP= 0.00E+00 SK= 0.00E+00
      720 T=  4290. E= -.27072827E+05 F= -.30985133E+05 EK= 0.39123E+04 SP= 0.00E+00 SK= 0.00E+00
      730 T=  4317. E= -.27072853E+05 F= -.31009837E+05 EK= 0.39370E+04 SP= 0.00E+00 SK= 0.00E+00
      740 T=  4325. E= -.27072807E+05 F= -.31016836E+05 EK= 0.39440E+04 SP= 0.00E+00 SK= 0.00E+00
      750 T=  4368. E= -.27072952E+05 F= -.31056051E+05 EK= 0.39831E+04 SP= 0.00E+00 SK= 0.00E+00
      760 T=  4309. E= -.27072793E+05 F= -.31002028E+05 EK= 0.39292E+04 SP= 0.00E+00 SK= 0.00E+00
      770 T=  4294. E= -.27072871E+05 F= -.30988381E+05 EK= 0.39155E+04 SP= 0.00E+00 SK= 0.00E+00
      780 T=  4290. E= -.27072871E+05 F= -.30984913E+05 EK= 0.39120E+04 SP= 0.00E+00 SK= 0.00E+00
      790 T=  4307. E= -.27072901E+05 F= -.31000521E+05 EK= 0.39276E+04 SP= 0.00E+00 SK= 0.00E+00
      800 T=  4301. E= -.27072849E+05 F= -.30994915E+05 EK= 0.39221E+04 SP= 0.00E+00 SK= 0.00E+00
      810 T=  4315. E= -.27072816E+05 F= -.31007663E+05 EK= 0.39348E+04 SP= 0.00E+00 SK= 0.00E+00
      820 T=  4345. E= -.27072933E+05 F= -.31035027E+05 EK= 0.39621E+04 SP= 0.00E+00 SK= 0.00E+00
      830 T=  4267. E= -.27072723E+05 F= -.30964122E+05 EK= 0.38914E+04 SP= 0.00E+00 SK= 0.00E+00
      840 T=  4315. E= -.27073004E+05 F= -.31007645E+05 EK= 0.39346E+04 SP= 0.00E+00 SK= 0.00E+00
      850 T=  4266. E= -.27072727E+05 F= -.30963266E+05 EK= 0.38905E+04 SP= 0.00E+00 SK= 0.00E+00
      860 T=  4322. E= -.27072846E+05 F= -.31014551E+05 EK= 0.39417E+04 SP= 0.00E+00 SK= 0.00E+00
      870 T=  4382. E= -.27072812E+05 F= -.31068851E+05 EK= 0.39960E+04 SP= 0.00E+00 SK= 0.00E+00
      880 T=  4370. E= -.27072669E+05 F= -.31058140E+05 EK= 0.39855E+04 SP= 0.00E+00 SK= 0.00E+00
      890 T=  4381. E= -.27072771E+05 F= -.31068312E+05 EK= 0.39955E+04 SP= 0.00E+00 SK= 0.00E+00
      900 T=  4330. E= -.27072566E+05 F= -.31021459E+05 EK= 0.39489E+04 SP= 0.00E+00 SK= 0.00E+00
      910 T=  4376. E= -.27072769E+05 F= -.31063789E+05 EK= 0.39910E+04 SP= 0.00E+00 SK= 0.00E+00
      920 T=  4324. E= -.27072686E+05 F= -.31016335E+05 EK= 0.39436E+04 SP= 0.00E+00 SK= 0.00E+00
      930 T=  4278. E= -.27072625E+05 F= -.30973839E+05 EK= 0.39012E+04 SP= 0.00E+00 SK= 0.00E+00
      940 T=  4351. E= -.27072825E+05 F= -.31040967E+05 EK= 0.39681E+04 SP= 0.00E+00 SK= 0.00E+00
      950 T=  4328. E= -.27072571E+05 F= -.31019263E+05 EK= 0.39467E+04 SP= 0.00E+00 SK= 0.00E+00
      960 T=  4357. E= -.27072846E+05 F= -.31045780E+05 EK= 0.39729E+04 SP= 0.00E+00 SK= 0.00E+00
      970 T=  4310. E= -.27072776E+05 F= -.31003507E+05 EK= 0.39307E+04 SP= 0.00E+00 SK= 0.00E+00
      980 T=  4292. E= -.27072718E+05 F= -.30987060E+05 EK= 0.39143E+04 SP= 0.00E+00 SK= 0.00E+00
      990 T=  4312. E= -.27072796E+05 F= -.31005006E+05 EK= 0.39322E+04 SP= 0.00E+00 SK= 0.00E+00
     1000 T=  4305. E= -.27072720E+05 F= -.30998392E+05 EK= 0.39257E+04 SP= 0.00E+00 SK= 0.00E+00
     1010 T=  4310. E= -.27072768E+05 F= -.31002920E+05 EK= 0.39302E+04 SP= 0.00E+00 SK= 0.00E+00
     1020 T=  4332. E= -.27072887E+05 F= -.31023520E+05 EK= 0.39506E+04 SP= 0.00E+00 SK= 0.00E+00
     1030 T=  4287. E= -.27072757E+05 F= -.30981845E+05 EK= 0.39091E+04 SP= 0.00E+00 SK= 0.00E+00
     1040 T=  4325. E= -.27072868E+05 F= -.31017202E+05 EK= 0.39443E+04 SP= 0.00E+00 SK= 0.00E+00
     1050 T=  4309. E= -.27072849E+05 F= -.31002405E+05 EK= 0.39296E+04 SP= 0.00E+00 SK= 0.00E+00
     1060 T=  4251. E= -.27072679E+05 F= -.30949039E+05 EK= 0.38764E+04 SP= 0.00E+00 SK= 0.00E+00
     1070 T=  4297. E= -.27072886E+05 F= -.30991692E+05 EK= 0.39188E+04 SP= 0.00E+00 SK= 0.00E+00
     1080 T=  4285. E= -.27072794E+05 F= -.30980696E+05 EK= 0.39079E+04 SP= 0.00E+00 SK= 0.00E+00
     1090 T=  4293. E= -.27072789E+05 F= -.30987325E+05 EK= 0.39145E+04 SP= 0.00E+00 SK= 0.00E+00
     1100 T=  4317. E= -.27072891E+05 F= -.31009470E+05 EK= 0.39366E+04 SP= 0.00E+00 SK= 0.00E+00
     1110 T=  4295. E= -.27072846E+05 F= -.30989705E+05 EK= 0.39169E+04 SP= 0.00E+00 SK= 0.00E+00
     1120 T=  4311. E= -.27072843E+05 F= -.31004441E+05 EK= 0.39316E+04 SP= 0.00E+00 SK= 0.00E+00
     1130 T=  4377. E= -.27072991E+05 F= -.31064121E+05 EK= 0.39911E+04 SP= 0.00E+00 SK= 0.00E+00
     1140 T=  4376. E= -.27072982E+05 F= -.31063554E+05 EK= 0.39906E+04 SP= 0.00E+00 SK= 0.00E+00
     1150 T=  4295. E= -.27072740E+05 F= -.30989214E+05 EK= 0.39165E+04 SP= 0.00E+00 SK= 0.00E+00
     1160 T=  4321. E= -.27072925E+05 F= -.31013395E+05 EK= 0.39405E+04 SP= 0.00E+00 SK= 0.00E+00
     1170 T=  4303. E= -.27072877E+05 F= -.30997336E+05 EK= 0.39245E+04 SP= 0.00E+00 SK= 0.00E+00
     1180 T=  4281. E= -.27072800E+05 F= -.30976863E+05 EK= 0.39041E+04 SP= 0.00E+00 SK= 0.00E+00
     1190 T=  4322. E= -.27072947E+05 F= -.31014514E+05 EK= 0.39416E+04 SP= 0.00E+00 SK= 0.00E+00
     1200 T=  4292. E= -.27072817E+05 F= -.30987125E+05 EK= 0.39143E+04 SP= 0.00E+00 SK= 0.00E+00
     1210 T=  4309. E= -.27072894E+05 F= -.31002414E+05 EK= 0.39295E+04 SP= 0.00E+00 SK= 0.00E+00
     1220 T=  4285. E= -.27072902E+05 F= -.30980915E+05 EK= 0.39080E+04 SP= 0.00E+00 SK= 0.00E+00
     1230 T=  4206. E= -.27072663E+05 F= -.30908219E+05 EK= 0.38356E+04 SP= 0.00E+00 SK= 0.00E+00
     1240 T=  4257. E= -.27072700E+05 F= -.30954877E+05 EK= 0.38822E+04 SP= 0.00E+00 SK= 0.00E+00
     1250 T=  4309. E= -.27072765E+05 F= -.31002532E+05 EK= 0.39298E+04 SP= 0.00E+00 SK= 0.00E+00
     1260 T=  4276. E= -.27072617E+05 F= -.30971987E+05 EK= 0.38994E+04 SP= 0.00E+00 SK= 0.00E+00
     1270 T=  4296. E= -.27072604E+05 F= -.30990378E+05 EK= 0.39178E+04 SP= 0.00E+00 SK= 0.00E+00
     1280 T=  4363. E= -.27072779E+05 F= -.31051545E+05 EK= 0.39788E+04 SP= 0.00E+00 SK= 0.00E+00
     1290 T=  4292. E= -.27072616E+05 F= -.30986727E+05 EK= 0.39141E+04 SP= 0.00E+00 SK= 0.00E+00
     1300 T=  4248. E= -.27072563E+05 F= -.30946301E+05 EK= 0.38737E+04 SP= 0.00E+00 SK= 0.00E+00
     1310 T=  4310. E= -.27072683E+05 F= -.31002879E+05 EK= 0.39302E+04 SP= 0.00E+00 SK= 0.00E+00
     1320 T=  4310. E= -.27072679E+05 F= -.31002892E+05 EK= 0.39302E+04 SP= 0.00E+00 SK= 0.00E+00
     1330 T=  4308. E= -.27072762E+05 F= -.31001188E+05 EK= 0.39284E+04 SP= 0.00E+00 SK= 0.00E+00
     1340 T=  4278. E= -.27072705E+05 F= -.30973869E+05 EK= 0.39012E+04 SP= 0.00E+00 SK= 0.00E+00
     1350 T=  4254. E= -.27072664E+05 F= -.30952341E+05 EK= 0.38797E+04 SP= 0.00E+00 SK= 0.00E+00
     1360 T=  4240. E= -.27072722E+05 F= -.30939073E+05 EK= 0.38664E+04 SP= 0.00E+00 SK= 0.00E+00
     1370 T=  4210. E= -.27072576E+05 F= -.30912114E+05 EK= 0.38395E+04 SP= 0.00E+00 SK= 0.00E+00
     1380 T=  4273. E= -.27072766E+05 F= -.30969414E+05 EK= 0.38966E+04 SP= 0.00E+00 SK= 0.00E+00
     1390 T=  4224. E= -.27072617E+05 F= -.30924647E+05 EK= 0.38520E+04 SP= 0.00E+00 SK= 0.00E+00
     1400 T=  4251. E= -.27072658E+05 F= -.30949167E+05 EK= 0.38765E+04 SP= 0.00E+00 SK= 0.00E+00
     1410 T=  4291. E= -.27072734E+05 F= -.30986073E+05 EK= 0.39133E+04 SP= 0.00E+00 SK= 0.00E+00
     1420 T=  4277. E= -.27072703E+05 F= -.30972881E+05 EK= 0.39002E+04 SP= 0.00E+00 SK= 0.00E+00
     1430 T=  4287. E= -.27072741E+05 F= -.30982159E+05 EK= 0.39094E+04 SP= 0.00E+00 SK= 0.00E+00
     1440 T=  4256. E= -.27072653E+05 F= -.30953422E+05 EK= 0.38808E+04 SP= 0.00E+00 SK= 0.00E+00
     1450 T=  4256. E= -.27072566E+05 F= -.30954053E+05 EK= 0.38815E+04 SP= 0.00E+00 SK= 0.00E+00
     1460 T=  4247. E= -.27072643E+05 F= -.30945527E+05 EK= 0.38729E+04 SP= 0.00E+00 SK= 0.00E+00
     1470 T=  4234. E= -.27072567E+05 F= -.30933710E+05 EK= 0.38611E+04 SP= 0.00E+00 SK= 0.00E+00
     1480 T=  4259. E= -.27072667E+05 F= -.30956264E+05 EK= 0.38836E+04 SP= 0.00E+00 SK= 0.00E+00
     1490 T=  4200. E= -.27072457E+05 F= -.30902385E+05 EK= 0.38299E+04 SP= 0.00E+00 SK= 0.00E+00
     1500 T=  4265. E= -.27072681E+05 F= -.30961710E+05 EK= 0.38890E+04 SP= 0.00E+00 SK= 0.00E+00
     1510 T=  4267. E= -.27072630E+05 F= -.30963903E+05 EK= 0.38913E+04 SP= 0.00E+00 SK= 0.00E+00
     1520 T=  4233. E= -.27072624E+05 F= -.30933184E+05 EK= 0.38606E+04 SP= 0.00E+00 SK= 0.00E+00
     1530 T=  4224. E= -.27072632E+05 F= -.30924824E+05 EK= 0.38522E+04 SP= 0.00E+00 SK= 0.00E+00
     1540 T=  4271. E= -.27072776E+05 F= -.30968094E+05 EK= 0.38953E+04 SP= 0.00E+00 SK= 0.00E+00
     1550 T=  4254. E= -.27072756E+05 F= -.30952447E+05 EK= 0.38797E+04 SP= 0.00E+00 SK= 0.00E+00
     1560 T=  4246. E= -.27072723E+05 F= -.30944524E+05 EK= 0.38718E+04 SP= 0.00E+00 SK= 0.00E+00
     1570 T=  4321. E= -.27072923E+05 F= -.31013719E+05 EK= 0.39408E+04 SP= 0.00E+00 SK= 0.00E+00
     1580 T=  4287. E= -.27072841E+05 F= -.30982550E+05 EK= 0.39097E+04 SP= 0.00E+00 SK= 0.00E+00
     1590 T=  4276. E= -.27072807E+05 F= -.30972565E+05 EK= 0.38998E+04 SP= 0.00E+00 SK= 0.00E+00
     1600 T=  4290. E= -.27072909E+05 F= -.30984950E+05 EK= 0.39120E+04 SP= 0.00E+00 SK= 0.00E+00
     1610 T=  4251. E= -.27072807E+05 F= -.30949391E+05 EK= 0.38766E+04 SP= 0.00E+00 SK= 0.00E+00
     1620 T=  4258. E= -.27072910E+05 F= -.30956231E+05 EK= 0.38833E+04 SP= 0.00E+00 SK= 0.00E+00
     1630 T=  4223. E= -.27072849E+05 F= -.30923807E+05 EK= 0.38510E+04 SP= 0.00E+00 SK= 0.00E+00
     1640 T=  4192. E= -.27072752E+05 F= -.30895175E+05 EK= 0.38224E+04 SP= 0.00E+00 SK= 0.00E+00
     1650 T=  4271. E= -.27072935E+05 F= -.30967917E+05 EK= 0.38950E+04 SP= 0.00E+00 SK= 0.00E+00
     1660 T=  4273. E= -.27072842E+05 F= -.30969722E+05 EK= 0.38969E+04 SP= 0.00E+00 SK= 0.00E+00
     1670 T=  4257. E= -.27072810E+05 F= -.30954814E+05 EK= 0.38820E+04 SP= 0.00E+00 SK= 0.00E+00
     1680 T=  4257. E= -.27072854E+05 F= -.30955135E+05 EK= 0.38823E+04 SP= 0.00E+00 SK= 0.00E+00
     1690 T=  4212. E= -.27072791E+05 F= -.30914122E+05 EK= 0.38413E+04 SP= 0.00E+00 SK= 0.00E+00
     1700 T=  4220. E= -.27072809E+05 F= -.30920990E+05 EK= 0.38482E+04 SP= 0.00E+00 SK= 0.00E+00
     1710 T=  4219. E= -.27072848E+05 F= -.30920159E+05 EK= 0.38473E+04 SP= 0.00E+00 SK= 0.00E+00
     1720 T=  4211. E= -.27072787E+05 F= -.30913322E+05 EK= 0.38405E+04 SP= 0.00E+00 SK= 0.00E+00
     1730 T=  4264. E= -.27072896E+05 F= -.30961692E+05 EK= 0.38888E+04 SP= 0.00E+00 SK= 0.00E+00
     1740 T=  4231. E= -.27072807E+05 F= -.30931437E+05 EK= 0.38586E+04 SP= 0.00E+00 SK= 0.00E+00
     1750 T=  4216. E= -.27072791E+05 F= -.30917518E+05 EK= 0.38447E+04 SP= 0.00E+00 SK= 0.00E+00
     1760 T=  4248. E= -.27072871E+05 F= -.30947140E+05 EK= 0.38743E+04 SP= 0.00E+00 SK= 0.00E+00
     1770 T=  4251. E= -.27072897E+05 F= -.30949947E+05 EK= 0.38771E+04 SP= 0.00E+00 SK= 0.00E+00
     1780 T=  4259. E= -.27072908E+05 F= -.30956399E+05 EK= 0.38835E+04 SP= 0.00E+00 SK= 0.00E+00
     1790 T=  4282. E= -.27072984E+05 F= -.30978315E+05 EK= 0.39053E+04 SP= 0.00E+00 SK= 0.00E+00
     1800 T=  4230. E= -.27072846E+05 F= -.30929938E+05 EK= 0.38571E+04 SP= 0.00E+00 SK= 0.00E+00
     1810 T=  4239. E= -.27072940E+05 F= -.30938788E+05 EK= 0.38658E+04 SP= 0.00E+00 SK= 0.00E+00
     1820 T=  4229. E= -.27072904E+05 F= -.30929336E+05 EK= 0.38564E+04 SP= 0.00E+00 SK= 0.00E+00
     1830 T=  4263. E= -.27072843E+05 F= -.30960392E+05 EK= 0.38875E+04 SP= 0.00E+00 SK= 0.00E+00
     1840 T=  4300. E= -.27072960E+05 F= -.30993911E+05 EK= 0.39210E+04 SP= 0.00E+00 SK= 0.00E+00
     1850 T=  4223. E= -.27072742E+05 F= -.30924131E+05 EK= 0.38514E+04 SP= 0.00E+00 SK= 0.00E+00
     1860 T=  4218. E= -.27072917E+05 F= -.30919623E+05 EK= 0.38467E+04 SP= 0.00E+00 SK= 0.00E+00
     1870 T=  4240. E= -.27072903E+05 F= -.30939895E+05 EK= 0.38670E+04 SP= 0.00E+00 SK= 0.00E+00
     1880 T=  4257. E= -.27072844E+05 F= -.30954604E+05 EK= 0.38818E+04 SP= 0.00E+00 SK= 0.00E+00
     1890 T=  4299. E= -.27073036E+05 F= -.30993727E+05 EK= 0.39207E+04 SP= 0.00E+00 SK= 0.00E+00
     1900 T=  4247. E= -.27072816E+05 F= -.30945634E+05 EK= 0.38728E+04 SP= 0.00E+00 SK= 0.00E+00
     1910 T=  4257. E= -.27072929E+05 F= -.30954601E+05 EK= 0.38817E+04 SP= 0.00E+00 SK= 0.00E+00
     1920 T=  4303. E= -.27072954E+05 F= -.30997279E+05 EK= 0.39243E+04 SP= 0.00E+00 SK= 0.00E+00
     1930 T=  4295. E= -.27072883E+05 F= -.30989307E+05 EK= 0.39164E+04 SP= 0.00E+00 SK= 0.00E+00
     1940 T=  4271. E= -.27072822E+05 F= -.30967792E+05 EK= 0.38950E+04 SP= 0.00E+00 SK= 0.00E+00
     1950 T=  4268. E= -.27072926E+05 F= -.30965274E+05 EK= 0.38923E+04 SP= 0.00E+00 SK= 0.00E+00
     1960 T=  4240. E= -.27072828E+05 F= -.30939721E+05 EK= 0.38669E+04 SP= 0.00E+00 SK= 0.00E+00
     1970 T=  4252. E= -.27072880E+05 F= -.30950840E+05 EK= 0.38780E+04 SP= 0.00E+00 SK= 0.00E+00
     1980 T=  4241. E= -.27072887E+05 F= -.30940404E+05 EK= 0.38675E+04 SP= 0.00E+00 SK= 0.00E+00
     1990 T=  4218. E= -.27072878E+05 F= -.30919569E+05 EK= 0.38467E+04 SP= 0.00E+00 SK= 0.00E+00
     2000 T=  4186. E= -.27072760E+05 F= -.30890390E+05 EK= 0.38176E+04 SP= 0.00E+00 SK= 0.00E+00
     2010 T=  4237. E= -.27072991E+05 F= -.30937011E+05 EK= 0.38640E+04 SP= 0.00E+00 SK= 0.00E+00
     2020 T=  4171. E= -.27072833E+05 F= -.30876957E+05 EK= 0.38041E+04 SP= 0.00E+00 SK= 0.00E+00
     2030 T=  4164. E= -.27072829E+05 F= -.30870047E+05 EK= 0.37972E+04 SP= 0.00E+00 SK= 0.00E+00
     2040 T=  4178. E= -.27072808E+05 F= -.30883324E+05 EK= 0.38105E+04 SP= 0.00E+00 SK= 0.00E+00
     2050 T=  4197. E= -.27072858E+05 F= -.30900239E+05 EK= 0.38274E+04 SP= 0.00E+00 SK= 0.00E+00
     2060 T=  4202. E= -.27072902E+05 F= -.30904558E+05 EK= 0.38317E+04 SP= 0.00E+00 SK= 0.00E+00
     2070 T=  4186. E= -.27072897E+05 F= -.30889925E+05 EK= 0.38170E+04 SP= 0.00E+00 SK= 0.00E+00
     2080 T=  4203. E= -.27072859E+05 F= -.30905371E+05 EK= 0.38325E+04 SP= 0.00E+00 SK= 0.00E+00
     2090 T=  4207. E= -.27072982E+05 F= -.30909198E+05 EK= 0.38362E+04 SP= 0.00E+00 SK= 0.00E+00
     2100 T=  4183. E= -.27072890E+05 F= -.30887811E+05 EK= 0.38149E+04 SP= 0.00E+00 SK= 0.00E+00
     2110 T=  4244. E= -.27073075E+05 F= -.30943522E+05 EK= 0.38704E+04 SP= 0.00E+00 SK= 0.00E+00
     2120 T=  4227. E= -.27072974E+05 F= -.30927905E+05 EK= 0.38549E+04 SP= 0.00E+00 SK= 0.00E+00
     2130 T=  4219. E= -.27073011E+05 F= -.30920159E+05 EK= 0.38471E+04 SP= 0.00E+00 SK= 0.00E+00
     2140 T=  4206. E= -.27072936E+05 F= -.30908750E+05 EK= 0.38358E+04 SP= 0.00E+00 SK= 0.00E+00
     2150 T=  4185. E= -.27072937E+05 F= -.30889191E+05 EK= 0.38163E+04 SP= 0.00E+00 SK= 0.00E+00
     2160 T=  4191. E= -.27072929E+05 F= -.30894452E+05 EK= 0.38215E+04 SP= 0.00E+00 SK= 0.00E+00
     2170 T=  4194. E= -.27072914E+05 F= -.30897410E+05 EK= 0.38245E+04 SP= 0.00E+00 SK= 0.00E+00
     2180 T=  4171. E= -.27072887E+05 F= -.30876620E+05 EK= 0.38037E+04 SP= 0.00E+00 SK= 0.00E+00
     2190 T=  4186. E= -.27072946E+05 F= -.30889953E+05 EK= 0.38170E+04 SP= 0.00E+00 SK= 0.00E+00
     2200 T=  4215. E= -.27072943E+05 F= -.30916407E+05 EK= 0.38435E+04 SP= 0.00E+00 SK= 0.00E+00
     2210 T=  4240. E= -.27073002E+05 F= -.30939735E+05 EK= 0.38667E+04 SP= 0.00E+00 SK= 0.00E+00
     2220 T=  4210. E= -.27072933E+05 F= -.30911884E+05 EK= 0.38390E+04 SP= 0.00E+00 SK= 0.00E+00
     2230 T=  4231. E= -.27073044E+05 F= -.30931020E+05 EK= 0.38580E+04 SP= 0.00E+00 SK= 0.00E+00
     2240 T=  4229. E= -.27072993E+05 F= -.30929228E+05 EK= 0.38562E+04 SP= 0.00E+00 SK= 0.00E+00
     2250 T=  4213. E= -.27073062E+05 F= -.30914823E+05 EK= 0.38418E+04 SP= 0.00E+00 SK= 0.00E+00
     2260 T=  4169. E= -.27073005E+05 F= -.30874820E+05 EK= 0.38018E+04 SP= 0.00E+00 SK= 0.00E+00
     2270 T=  4158. E= -.27072998E+05 F= -.30865175E+05 EK= 0.37922E+04 SP= 0.00E+00 SK= 0.00E+00
     2280 T=  4202. E= -.27073037E+05 F= -.30905045E+05 EK= 0.38320E+04 SP= 0.00E+00 SK= 0.00E+00
     2290 T=  4235. E= -.27073096E+05 F= -.30935328E+05 EK= 0.38622E+04 SP= 0.00E+00 SK= 0.00E+00
     2300 T=  4233. E= -.27073011E+05 F= -.30933364E+05 EK= 0.38604E+04 SP= 0.00E+00 SK= 0.00E+00
     2310 T=  4255. E= -.27073070E+05 F= -.30953443E+05 EK= 0.38804E+04 SP= 0.00E+00 SK= 0.00E+00
     2320 T=  4200. E= -.27072977E+05 F= -.30903436E+05 EK= 0.38305E+04 SP= 0.00E+00 SK= 0.00E+00
     2330 T=  4196. E= -.27073065E+05 F= -.30899974E+05 EK= 0.38269E+04 SP= 0.00E+00 SK= 0.00E+00
     2340 T=  4184. E= -.27073025E+05 F= -.30888248E+05 EK= 0.38152E+04 SP= 0.00E+00 SK= 0.00E+00
     2350 T=  4191. E= -.27073041E+05 F= -.30895345E+05 EK= 0.38223E+04 SP= 0.00E+00 SK= 0.00E+00
     2360 T=  4238. E= -.27073083E+05 F= -.30938185E+05 EK= 0.38651E+04 SP= 0.00E+00 SK= 0.00E+00
     2370 T=  4235. E= -.27073080E+05 F= -.30935091E+05 EK= 0.38620E+04 SP= 0.00E+00 SK= 0.00E+00
     2380 T=  4181. E= -.27073037E+05 F= -.30885650E+05 EK= 0.38126E+04 SP= 0.00E+00 SK= 0.00E+00
     2390 T=  4158. E= -.27073009E+05 F= -.30864776E+05 EK= 0.37918E+04 SP= 0.00E+00 SK= 0.00E+00
     2400 T=  4196. E= -.27073052E+05 F= -.30899278E+05 EK= 0.38262E+04 SP= 0.00E+00 SK= 0.00E+00
     2410 T=  4221. E= -.27073161E+05 F= -.30922866E+05 EK= 0.38497E+04 SP= 0.00E+00 SK= 0.00E+00
     2420 T=  4168. E= -.27073069E+05 F= -.30874237E+05 EK= 0.38012E+04 SP= 0.00E+00 SK= 0.00E+00
     2430 T=  4223. E= -.27073095E+05 F= -.30923774E+05 EK= 0.38507E+04 SP= 0.00E+00 SK= 0.00E+00
     2440 T=  4251. E= -.27073197E+05 F= -.30950071E+05 EK= 0.38769E+04 SP= 0.00E+00 SK= 0.00E+00
     2450 T=  4173. E= -.27073040E+05 F= -.30878619E+05 EK= 0.38056E+04 SP= 0.00E+00 SK= 0.00E+00
     2460 T=  4167. E= -.27073178E+05 F= -.30873606E+05 EK= 0.38004E+04 SP= 0.00E+00 SK= 0.00E+00
     2470 T=  4128. E= -.27073053E+05 F= -.30837949E+05 EK= 0.37649E+04 SP= 0.00E+00 SK= 0.00E+00
     2480 T=  4177. E= -.27073166E+05 F= -.30882539E+05 EK= 0.38094E+04 SP= 0.00E+00 SK= 0.00E+00
     2490 T=  4161. E= -.27073172E+05 F= -.30868109E+05 EK= 0.37949E+04 SP= 0.00E+00 SK= 0.00E+00
     2500 T=  4169. E= -.27073241E+05 F= -.30874945E+05 EK= 0.38017E+04 SP= 0.00E+00 SK= 0.00E+00
     2510 T=  4164. E= -.27073256E+05 F= -.30870575E+05 EK= 0.37973E+04 SP= 0.00E+00 SK= 0.00E+00
     2520 T=  4162. E= -.27073216E+05 F= -.30868722E+05 EK= 0.37955E+04 SP= 0.00E+00 SK= 0.00E+00
     2530 T=  4196. E= -.27073291E+05 F= -.30899929E+05 EK= 0.38266E+04 SP= 0.00E+00 SK= 0.00E+00
     2540 T=  4176. E= -.27073238E+05 F= -.30881656E+05 EK= 0.38084E+04 SP= 0.00E+00 SK= 0.00E+00
     2550 T=  4241. E= -.27073333E+05 F= -.30940745E+05 EK= 0.38674E+04 SP= 0.00E+00 SK= 0.00E+00
     2560 T=  4252. E= -.27073413E+05 F= -.30951015E+05 EK= 0.38776E+04 SP= 0.00E+00 SK= 0.00E+00
     2570 T=  4148. E= -.27073302E+05 F= -.30856238E+05 EK= 0.37829E+04 SP= 0.00E+00 SK= 0.00E+00
     2580 T=  4125. E= -.27073261E+05 F= -.30835172E+05 EK= 0.37619E+04 SP= 0.00E+00 SK= 0.00E+00
     2590 T=  4203. E= -.27073374E+05 F= -.30906592E+05 EK= 0.38332E+04 SP= 0.00E+00 SK= 0.00E+00
     2600 T=  4183. E= -.27073245E+05 F= -.30888278E+05 EK= 0.38150E+04 SP= 0.00E+00 SK= 0.00E+00
     2610 T=  4163. E= -.27073201E+05 F= -.30869874E+05 EK= 0.37967E+04 SP= 0.00E+00 SK= 0.00E+00
     2620 T=  4181. E= -.27073304E+05 F= -.30885714E+05 EK= 0.38124E+04 SP= 0.00E+00 SK= 0.00E+00
     2630 T=  4135. E= -.27073172E+05 F= -.30844476E+05 EK= 0.37713E+04 SP= 0.00E+00 SK= 0.00E+00
     2640 T=  4143. E= -.27073156E+05 F= -.30851160E+05 EK= 0.37780E+04 SP= 0.00E+00 SK= 0.00E+00
     2650 T=  4198. E= -.27073208E+05 F= -.30901236E+05 EK= 0.38280E+04 SP= 0.00E+00 SK= 0.00E+00
     2660 T=  4197. E= -.27073143E+05 F= -.30900698E+05 EK= 0.38276E+04 SP= 0.00E+00 SK= 0.00E+00
     2670 T=  4194. E= -.27073247E+05 F= -.30898025E+05 EK= 0.38248E+04 SP= 0.00E+00 SK= 0.00E+00
     2680 T=  4148. E= -.27073200E+05 F= -.30855939E+05 EK= 0.37827E+04 SP= 0.00E+00 SK= 0.00E+00
     2690 T=  4119. E= -.27073253E+05 F= -.30829615E+05 EK= 0.37564E+04 SP= 0.00E+00 SK= 0.00E+00
     2700 T=  4132. E= -.27073334E+05 F= -.30841801E+05 EK= 0.37685E+04 SP= 0.00E+00 SK= 0.00E+00
     2710 T=  4100. E= -.27073075E+05 F= -.30811735E+05 EK= 0.37387E+04 SP= 0.00E+00 SK= 0.00E+00
     2720 T=  4160. E= -.27073308E+05 F= -.30866623E+05 EK= 0.37933E+04 SP= 0.00E+00 SK= 0.00E+00
     2730 T=  4168. E= -.27073262E+05 F= -.30873868E+05 EK= 0.38006E+04 SP= 0.00E+00 SK= 0.00E+00
     2740 T=  4164. E= -.27073263E+05 F= -.30870844E+05 EK= 0.37976E+04 SP= 0.00E+00 SK= 0.00E+00
     2750 T=  4135. E= -.27073216E+05 F= -.30843971E+05 EK= 0.37708E+04 SP= 0.00E+00 SK= 0.00E+00
     2760 T=  4110. E= -.27073222E+05 F= -.30821127E+05 EK= 0.37479E+04 SP= 0.00E+00 SK= 0.00E+00
     2770 T=  4089. E= -.27073201E+05 F= -.30802121E+05 EK= 0.37289E+04 SP= 0.00E+00 SK= 0.00E+00
     2780 T=  4091. E= -.27073165E+05 F= -.30804302E+05 EK= 0.37311E+04 SP= 0.00E+00 SK= 0.00E+00
     2790 T=  4121. E= -.27073223E+05 F= -.30831435E+05 EK= 0.37582E+04 SP= 0.00E+00 SK= 0.00E+00
     2800 T=  4112. E= -.27073256E+05 F= -.30823348E+05 EK= 0.37501E+04 SP= 0.00E+00 SK= 0.00E+00
     2810 T=  4111. E= -.27073134E+05 F= -.30822527E+05 EK= 0.37494E+04 SP= 0.00E+00 SK= 0.00E+00
     2820 T=  4160. E= -.27073275E+05 F= -.30867179E+05 EK= 0.37939E+04 SP= 0.00E+00 SK= 0.00E+00
     2830 T=  4125. E= -.27073189E+05 F= -.30835349E+05 EK= 0.37622E+04 SP= 0.00E+00 SK= 0.00E+00
     2840 T=  4071. E= -.27073054E+05 F= -.30785856E+05 EK= 0.37128E+04 SP= 0.00E+00 SK= 0.00E+00
     2850 T=  4154. E= -.27073270E+05 F= -.30861629E+05 EK= 0.37884E+04 SP= 0.00E+00 SK= 0.00E+00
     2860 T=  4144. E= -.27073112E+05 F= -.30852297E+05 EK= 0.37792E+04 SP= 0.00E+00 SK= 0.00E+00
     2870 T=  4116. E= -.27073050E+05 F= -.30827010E+05 EK= 0.37540E+04 SP= 0.00E+00 SK= 0.00E+00
     2880 T=  4128. E= -.27073081E+05 F= -.30837655E+05 EK= 0.37646E+04 SP= 0.00E+00 SK= 0.00E+00
     2890 T=  4124. E= -.27073095E+05 F= -.30833674E+05 EK= 0.37606E+04 SP= 0.00E+00 SK= 0.00E+00
     2900 T=  4091. E= -.27073089E+05 F= -.30803526E+05 EK= 0.37304E+04 SP= 0.00E+00 SK= 0.00E+00
     2910 T=  4098. E= -.27073081E+05 F= -.30809746E+05 EK= 0.37367E+04 SP= 0.00E+00 SK= 0.00E+00
     2920 T=  4152. E= -.27073165E+05 F= -.30859686E+05 EK= 0.37865E+04 SP= 0.00E+00 SK= 0.00E+00
     2930 T=  4133. E= -.27072954E+05 F= -.30841704E+05 EK= 0.37688E+04 SP= 0.00E+00 SK= 0.00E+00
     2940 T=  4123. E= -.27073033E+05 F= -.30832614E+05 EK= 0.37596E+04 SP= 0.00E+00 SK= 0.00E+00
     2950 T=  4077. E= -.27073038E+05 F= -.30790883E+05 EK= 0.37178E+04 SP= 0.00E+00 SK= 0.00E+00
     2960 T=  4073. E= -.27073022E+05 F= -.30787187E+05 EK= 0.37142E+04 SP= 0.00E+00 SK= 0.00E+00
     2970 T=  4096. E= -.27073133E+05 F= -.30808781E+05 EK= 0.37356E+04 SP= 0.00E+00 SK= 0.00E+00
     2980 T=  4079. E= -.27073171E+05 F= -.30793043E+05 EK= 0.37199E+04 SP= 0.00E+00 SK= 0.00E+00
     2990 T=  4068. E= -.27073029E+05 F= -.30782642E+05 EK= 0.37096E+04 SP= 0.00E+00 SK= 0.00E+00
     3000 T=  4169. E= -.27073282E+05 F= -.30874785E+05 EK= 0.38015E+04 SP= 0.00E+00 SK= 0.00E+00
     3010 T=  4108. E= -.27073105E+05 F= -.30819191E+05 EK= 0.37461E+04 SP= 0.00E+00 SK= 0.00E+00
     3020 T=  4051. E= -.27073146E+05 F= -.30767486E+05 EK= 0.36943E+04 SP= 0.00E+00 SK= 0.00E+00
     3030 T=  4022. E= -.27073026E+05 F= -.30741100E+05 EK= 0.36681E+04 SP= 0.00E+00 SK= 0.00E+00
     3040 T=  4087. E= -.27073127E+05 F= -.30800517E+05 EK= 0.37274E+04 SP= 0.00E+00 SK= 0.00E+00
     3050 T=  4074. E= -.27073014E+05 F= -.30788683E+05 EK= 0.37157E+04 SP= 0.00E+00 SK= 0.00E+00
     3060 T=  4077. E= -.27073164E+05 F= -.30791048E+05 EK= 0.37179E+04 SP= 0.00E+00 SK= 0.00E+00
     3070 T=  4059. E= -.27073021E+05 F= -.30774379E+05 EK= 0.37014E+04 SP= 0.00E+00 SK= 0.00E+00
     3080 T=  4077. E= -.27073120E+05 F= -.30791038E+05 EK= 0.37179E+04 SP= 0.00E+00 SK= 0.00E+00
     3090 T=  4053. E= -.27073101E+05 F= -.30769422E+05 EK= 0.36963E+04 SP= 0.00E+00 SK= 0.00E+00
     3100 T=  4011. E= -.27073040E+05 F= -.30730775E+05 EK= 0.36577E+04 SP= 0.00E+00 SK= 0.00E+00
     3110 T=  4031. E= -.27073079E+05 F= -.30748909E+05 EK= 0.36758E+04 SP= 0.00E+00 SK= 0.00E+00
     3120 T=  4017. E= -.27072976E+05 F= -.30736083E+05 EK= 0.36631E+04 SP= 0.00E+00 SK= 0.00E+00
     3130 T=  4069. E= -.27073071E+05 F= -.30783443E+05 EK= 0.37104E+04 SP= 0.00E+00 SK= 0.00E+00
     3140 T=  4073. E= -.27073085E+05 F= -.30787806E+05 EK= 0.37147E+04 SP= 0.00E+00 SK= 0.00E+00
     3150 T=  4078. E= -.27073099E+05 F= -.30792280E+05 EK= 0.37192E+04 SP= 0.00E+00 SK= 0.00E+00
     3160 T=  4070. E= -.27073004E+05 F= -.30784910E+05 EK= 0.37119E+04 SP= 0.00E+00 SK= 0.00E+00
     3170 T=  4069. E= -.27073003E+05 F= -.30783970E+05 EK= 0.37110E+04 SP= 0.00E+00 SK= 0.00E+00
     3180 T=  4043. E= -.27072969E+05 F= -.30759740E+05 EK= 0.36868E+04 SP= 0.00E+00 SK= 0.00E+00
     3190 T=  4027. E= -.27073040E+05 F= -.30745114E+05 EK= 0.36721E+04 SP= 0.00E+00 SK= 0.00E+00
     3200 T=  4008. E= -.27072934E+05 F= -.30728158E+05 EK= 0.36552E+04 SP= 0.00E+00 SK= 0.00E+00
     3210 T=  4016. E= -.27072988E+05 F= -.30735754E+05 EK= 0.36628E+04 SP= 0.00E+00 SK= 0.00E+00
     3220 T=  3975. E= -.27072778E+05 F= -.30698016E+05 EK= 0.36252E+04 SP= 0.00E+00 SK= 0.00E+00
     3230 T=  4058. E= -.27072920E+05 F= -.30773902E+05 EK= 0.37010E+04 SP= 0.00E+00 SK= 0.00E+00
     3240 T=  4067. E= -.27072797E+05 F= -.30781475E+05 EK= 0.37087E+04 SP= 0.00E+00 SK= 0.00E+00
     3250 T=  4023. E= -.27072757E+05 F= -.30741818E+05 EK= 0.36691E+04 SP= 0.00E+00 SK= 0.00E+00
     3260 T=  4012. E= -.27072763E+05 F= -.30731884E+05 EK= 0.36591E+04 SP= 0.00E+00 SK= 0.00E+00
     3270 T=  4008. E= -.27072701E+05 F= -.30727801E+05 EK= 0.36551E+04 SP= 0.00E+00 SK= 0.00E+00
     3280 T=  4028. E= -.27072719E+05 F= -.30746436E+05 EK= 0.36737E+04 SP= 0.00E+00 SK= 0.00E+00
     3290 T=  4025. E= -.27072613E+05 F= -.30743543E+05 EK= 0.36709E+04 SP= 0.00E+00 SK= 0.00E+00
     3300 T=  4028. E= -.27072693E+05 F= -.30746218E+05 EK= 0.36735E+04 SP= 0.00E+00 SK= 0.00E+00
     3310 T=  4015. E= -.27072625E+05 F= -.30733930E+05 EK= 0.36613E+04 SP= 0.00E+00 SK= 0.00E+00
     3320 T=  4034. E= -.27072708E+05 F= -.30751024E+05 EK= 0.36783E+04 SP= 0.00E+00 SK= 0.00E+00
     3330 T=  3989. E= -.27072544E+05 F= -.30710655E+05 EK= 0.36381E+04 SP= 0.00E+00 SK= 0.00E+00
     3340 T=  3991. E= -.27072575E+05 F= -.30711870E+05 EK= 0.36393E+04 SP= 0.00E+00 SK= 0.00E+00
     3350 T=  4056. E= -.27072709E+05 F= -.30771472E+05 EK= 0.36988E+04 SP= 0.00E+00 SK= 0.00E+00
     3360 T=  4045. E= -.27072716E+05 F= -.30761934E+05 EK= 0.36892E+04 SP= 0.00E+00 SK= 0.00E+00
     3370 T=  3967. E= -.27072600E+05 F= -.30690340E+05 EK= 0.36177E+04 SP= 0.00E+00 SK= 0.00E+00
     3380 T=  3970. E= -.27072614E+05 F= -.30692851E+05 EK= 0.36202E+04 SP= 0.00E+00 SK= 0.00E+00
     3390 T=  3993. E= -.27072656E+05 F= -.30714250E+05 EK= 0.36416E+04 SP= 0.00E+00 SK= 0.00E+00
     3400 T=  3980. E= -.27072649E+05 F= -.30702075E+05 EK= 0.36294E+04 SP= 0.00E+00 SK= 0.00E+00
     3410 T=  3984. E= -.27072609E+05 F= -.30706040E+05 EK= 0.36334E+04 SP= 0.00E+00 SK= 0.00E+00
     3420 T=  3987. E= -.27072645E+05 F= -.30708690E+05 EK= 0.36360E+04 SP= 0.00E+00 SK= 0.00E+00
     3430 T=  3997. E= -.27072631E+05 F= -.30717439E+05 EK= 0.36448E+04 SP= 0.00E+00 SK= 0.00E+00
     3440 T=  3997. E= -.27072656E+05 F= -.30717915E+05 EK= 0.36453E+04 SP= 0.00E+00 SK= 0.00E+00
     3450 T=  3964. E= -.27072587E+05 F= -.30687066E+05 EK= 0.36145E+04 SP= 0.00E+00 SK= 0.00E+00
     3460 T=  3996. E= -.27072632E+05 F= -.30716502E+05 EK= 0.36439E+04 SP= 0.00E+00 SK= 0.00E+00
     3470 T=  4011. E= -.27072655E+05 F= -.30729996E+05 EK= 0.36573E+04 SP= 0.00E+00 SK= 0.00E+00
     3480 T=  3974. E= -.27072730E+05 F= -.30696860E+05 EK= 0.36241E+04 SP= 0.00E+00 SK= 0.00E+00
     3490 T=  3930. E= -.27072659E+05 F= -.30656281E+05 EK= 0.35836E+04 SP= 0.00E+00 SK= 0.00E+00
     3500 T=  3973. E= -.27072732E+05 F= -.30695745E+05 EK= 0.36230E+04 SP= 0.00E+00 SK= 0.00E+00
     3510 T=  3994. E= -.27072775E+05 F= -.30714623E+05 EK= 0.36418E+04 SP= 0.00E+00 SK= 0.00E+00
     3520 T=  3935. E= -.27072592E+05 F= -.30661273E+05 EK= 0.35887E+04 SP= 0.00E+00 SK= 0.00E+00
     3530 T=  3959. E= -.27072673E+05 F= -.30682980E+05 EK= 0.36103E+04 SP= 0.00E+00 SK= 0.00E+00
     3540 T=  3999. E= -.27072734E+05 F= -.30719168E+05 EK= 0.36464E+04 SP= 0.00E+00 SK= 0.00E+00
     3550 T=  3935. E= -.27072566E+05 F= -.30661224E+05 EK= 0.35887E+04 SP= 0.00E+00 SK= 0.00E+00
     3560 T=  3959. E= -.27072694E+05 F= -.30683371E+05 EK= 0.36107E+04 SP= 0.00E+00 SK= 0.00E+00
     3570 T=  3962. E= -.27072740E+05 F= -.30685803E+05 EK= 0.36131E+04 SP= 0.00E+00 SK= 0.00E+00
     3580 T=  3907. E= -.27072611E+05 F= -.30635991E+05 EK= 0.35634E+04 SP= 0.00E+00 SK= 0.00E+00
     3590 T=  3979. E= -.27072830E+05 F= -.30701589E+05 EK= 0.36288E+04 SP= 0.00E+00 SK= 0.00E+00
     3600 T=  3946. E= -.27072679E+05 F= -.30671531E+05 EK= 0.35989E+04 SP= 0.00E+00 SK= 0.00E+00
     3610 T=  3929. E= -.27072627E+05 F= -.30655759E+05 EK= 0.35831E+04 SP= 0.00E+00 SK= 0.00E+00
     3620 T=  4010. E= -.27072916E+05 F= -.30729757E+05 EK= 0.36568E+04 SP= 0.00E+00 SK= 0.00E+00
     3630 T=  3926. E= -.27072602E+05 F= -.30653007E+05 EK= 0.35804E+04 SP= 0.00E+00 SK= 0.00E+00
     3640 T=  3965. E= -.27072841E+05 F= -.30688725E+05 EK= 0.36159E+04 SP= 0.00E+00 SK= 0.00E+00
     3650 T=  3963. E= -.27072781E+05 F= -.30687229E+05 EK= 0.36144E+04 SP= 0.00E+00 SK= 0.00E+00
     3660 T=  3943. E= -.27072812E+05 F= -.30668353E+05 EK= 0.35955E+04 SP= 0.00E+00 SK= 0.00E+00
     3670 T=  3932. E= -.27072693E+05 F= -.30658753E+05 EK= 0.35861E+04 SP= 0.00E+00 SK= 0.00E+00
     3680 T=  3965. E= -.27072991E+05 F= -.30689253E+05 EK= 0.36163E+04 SP= 0.00E+00 SK= 0.00E+00
     3690 T=  3865. E= -.27072682E+05 F= -.30597136E+05 EK= 0.35245E+04 SP= 0.00E+00 SK= 0.00E+00
     3700 T=  3953. E= -.27073034E+05 F= -.30677778E+05 EK= 0.36047E+04 SP= 0.00E+00 SK= 0.00E+00
     3710 T=  3933. E= -.27072859E+05 F= -.30659922E+05 EK= 0.35871E+04 SP= 0.00E+00 SK= 0.00E+00
     3720 T=  3918. E= -.27072929E+05 F= -.30646177E+05 EK= 0.35732E+04 SP= 0.00E+00 SK= 0.00E+00
     3730 T=  3952. E= -.27072936E+05 F= -.30676741E+05 EK= 0.36038E+04 SP= 0.00E+00 SK= 0.00E+00
     3740 T=  3946. E= -.27072904E+05 F= -.30671076E+05 EK= 0.35982E+04 SP= 0.00E+00 SK= 0.00E+00
     3750 T=  3924. E= -.27072860E+05 F= -.30651398E+05 EK= 0.35785E+04 SP= 0.00E+00 SK= 0.00E+00
     3760 T=  3927. E= -.27072881E+05 F= -.30654162E+05 EK= 0.35813E+04 SP= 0.00E+00 SK= 0.00E+00
     3770 T=  3913. E= -.27072741E+05 F= -.30641590E+05 EK= 0.35688E+04 SP= 0.00E+00 SK= 0.00E+00
     3780 T=  3944. E= -.27072830E+05 F= -.30669202E+05 EK= 0.35964E+04 SP= 0.00E+00 SK= 0.00E+00
     3790 T=  3903. E= -.27072727E+05 F= -.30632129E+05 EK= 0.35594E+04 SP= 0.00E+00 SK= 0.00E+00
     3800 T=  3894. E= -.27072762E+05 F= -.30623926E+05 EK= 0.35512E+04 SP= 0.00E+00 SK= 0.00E+00
     3810 T=  3877. E= -.27072670E+05 F= -.30607798E+05 EK= 0.35351E+04 SP= 0.00E+00 SK= 0.00E+00
     3820 T=  3908. E= -.27072748E+05 F= -.30636473E+05 EK= 0.35637E+04 SP= 0.00E+00 SK= 0.00E+00
     3830 T=  3899. E= -.27072695E+05 F= -.30628078E+05 EK= 0.35554E+04 SP= 0.00E+00 SK= 0.00E+00
     3840 T=  3902. E= -.27072741E+05 F= -.30631231E+05 EK= 0.35585E+04 SP= 0.00E+00 SK= 0.00E+00
     3850 T=  3906. E= -.27072747E+05 F= -.30634861E+05 EK= 0.35621E+04 SP= 0.00E+00 SK= 0.00E+00
     3860 T=  3883. E= -.27072713E+05 F= -.30613317E+05 EK= 0.35406E+04 SP= 0.00E+00 SK= 0.00E+00
     3870 T=  3903. E= -.27072773E+05 F= -.30631667E+05 EK= 0.35589E+04 SP= 0.00E+00 SK= 0.00E+00
     3880 T=  3925. E= -.27072777E+05 F= -.30651939E+05 EK= 0.35792E+04 SP= 0.00E+00 SK= 0.00E+00
     3890 T=  3923. E= -.27072771E+05 F= -.30650335E+05 EK= 0.35776E+04 SP= 0.00E+00 SK= 0.00E+00
     3900 T=  3907. E= -.27072687E+05 F= -.30635999E+05 EK= 0.35633E+04 SP= 0.00E+00 SK= 0.00E+00
     3910 T=  3932. E= -.27072799E+05 F= -.30658140E+05 EK= 0.35853E+04 SP= 0.00E+00 SK= 0.00E+00
     3920 T=  3911. E= -.27072691E+05 F= -.30639297E+05 EK= 0.35666E+04 SP= 0.00E+00 SK= 0.00E+00
     3930 T=  3934. E= -.27072848E+05 F= -.30660639E+05 EK= 0.35878E+04 SP= 0.00E+00 SK= 0.00E+00
     3940 T=  3863. E= -.27072623E+05 F= -.30595114E+05 EK= 0.35225E+04 SP= 0.00E+00 SK= 0.00E+00
     3950 T=  3865. E= -.27072707E+05 F= -.30597309E+05 EK= 0.35246E+04 SP= 0.00E+00 SK= 0.00E+00
     3960 T=  3870. E= -.27072655E+05 F= -.30601424E+05 EK= 0.35288E+04 SP= 0.00E+00 SK= 0.00E+00
     3970 T=  3843. E= -.27072579E+05 F= -.30576916E+05 EK= 0.35043E+04 SP= 0.00E+00 SK= 0.00E+00
     3980 T=  3869. E= -.27072644E+05 F= -.30600542E+05 EK= 0.35279E+04 SP= 0.00E+00 SK= 0.00E+00
     3990 T=  3921. E= -.27072689E+05 F= -.30648147E+05 EK= 0.35755E+04 SP= 0.00E+00 SK= 0.00E+00
     4000 T=  3909. E= -.27072712E+05 F= -.30637151E+05 EK= 0.35644E+04 SP= 0.00E+00 SK= 0.00E+00
     4010 T=  3845. E= -.27072599E+05 F= -.30579196E+05 EK= 0.35066E+04 SP= 0.00E+00 SK= 0.00E+00
     4020 T=  3854. E= -.27072716E+05 F= -.30587401E+05 EK= 0.35147E+04 SP= 0.00E+00 SK= 0.00E+00
     4030 T=  3860. E= -.27072670E+05 F= -.30592296E+05 EK= 0.35196E+04 SP= 0.00E+00 SK= 0.00E+00
     4040 T=  3860. E= -.27072708E+05 F= -.30592793E+05 EK= 0.35201E+04 SP= 0.00E+00 SK= 0.00E+00
     4050 T=  3877. E= -.27072722E+05 F= -.30608418E+05 EK= 0.35357E+04 SP= 0.00E+00 SK= 0.00E+00
     4060 T=  3866. E= -.27072674E+05 F= -.30598047E+05 EK= 0.35254E+04 SP= 0.00E+00 SK= 0.00E+00
     4070 T=  3843. E= -.27072595E+05 F= -.30577532E+05 EK= 0.35049E+04 SP= 0.00E+00 SK= 0.00E+00
     4080 T=  3898. E= -.27072757E+05 F= -.30627340E+05 EK= 0.35546E+04 SP= 0.00E+00 SK= 0.00E+00
     4090 T=  3876. E= -.27072650E+05 F= -.30607567E+05 EK= 0.35349E+04 SP= 0.00E+00 SK= 0.00E+00
     4100 T=  3866. E= -.27072712E+05 F= -.30598610E+05 EK= 0.35259E+04 SP= 0.00E+00 SK= 0.00E+00
     4110 T=  3843. E= -.27072682E+05 F= -.30577337E+05 EK= 0.35047E+04 SP= 0.00E+00 SK= 0.00E+00
     4120 T=  3839. E= -.27072686E+05 F= -.30573767E+05 EK= 0.35011E+04 SP= 0.00E+00 SK= 0.00E+00
     4130 T=  3849. E= -.27072667E+05 F= -.30582349E+05 EK= 0.35097E+04 SP= 0.00E+00 SK= 0.00E+00
     4140 T=  3865. E= -.27072714E+05 F= -.30596975E+05 EK= 0.35243E+04 SP= 0.00E+00 SK= 0.00E+00
     4150 T=  3849. E= -.27072664E+05 F= -.30583001E+05 EK= 0.35103E+04 SP= 0.00E+00 SK= 0.00E+00
     4160 T=  3812. E= -.27072708E+05 F= -.30549142E+05 EK= 0.34764E+04 SP= 0.00E+00 SK= 0.00E+00
     4170 T=  3777. E= -.27072582E+05 F= -.30517235E+05 EK= 0.34447E+04 SP= 0.00E+00 SK= 0.00E+00
     4180 T=  3842. E= -.27072677E+05 F= -.30576105E+05 EK= 0.35034E+04 SP= 0.00E+00 SK= 0.00E+00
     4190 T=  3846. E= -.27072533E+05 F= -.30580042E+05 EK= 0.35075E+04 SP= 0.00E+00 SK= 0.00E+00
     4200 T=  3836. E= -.27072653E+05 F= -.30570969E+05 EK= 0.34983E+04 SP= 0.00E+00 SK= 0.00E+00
     4210 T=  3833. E= -.27072708E+05 F= -.30568374E+05 EK= 0.34957E+04 SP= 0.00E+00 SK= 0.00E+00
     4220 T=  3837. E= -.27072697E+05 F= -.30571400E+05 EK= 0.34987E+04 SP= 0.00E+00 SK= 0.00E+00
     4230 T=  3805. E= -.27072642E+05 F= -.30542625E+05 EK= 0.34700E+04 SP= 0.00E+00 SK= 0.00E+00
     4240 T=  3815. E= -.27072715E+05 F= -.30551958E+05 EK= 0.34792E+04 SP= 0.00E+00 SK= 0.00E+00
     4250 T=  3808. E= -.27072689E+05 F= -.30545608E+05 EK= 0.34729E+04 SP= 0.00E+00 SK= 0.00E+00
     4260 T=  3794. E= -.27072603E+05 F= -.30532106E+05 EK= 0.34595E+04 SP= 0.00E+00 SK= 0.00E+00
     4270 T=  3865. E= -.27072789E+05 F= -.30597468E+05 EK= 0.35247E+04 SP= 0.00E+00 SK= 0.00E+00
     4280 T=  3846. E= -.27072715E+05 F= -.30580469E+05 EK= 0.35078E+04 SP= 0.00E+00 SK= 0.00E+00
     4290 T=  3804. E= -.27072738E+05 F= -.30541729E+05 EK= 0.34690E+04 SP= 0.00E+00 SK= 0.00E+00
     4300 T=  3802. E= -.27072715E+05 F= -.30539560E+05 EK= 0.34668E+04 SP= 0.00E+00 SK= 0.00E+00
     4310 T=  3829. E= -.27072733E+05 F= -.30564171E+05 EK= 0.34914E+04 SP= 0.00E+00 SK= 0.00E+00
     4320 T=  3792. E= -.27072665E+05 F= -.30530332E+05 EK= 0.34577E+04 SP= 0.00E+00 SK= 0.00E+00
     4330 T=  3773. E= -.27072608E+05 F= -.30513222E+05 EK= 0.34406E+04 SP= 0.00E+00 SK= 0.00E+00
     4340 T=  3829. E= -.27072696E+05 F= -.30564334E+05 EK= 0.34916E+04 SP= 0.00E+00 SK= 0.00E+00
     4350 T=  3845. E= -.27072650E+05 F= -.30578889E+05 EK= 0.35062E+04 SP= 0.00E+00 SK= 0.00E+00
     4360 T=  3860. E= -.27072697E+05 F= -.30592576E+05 EK= 0.35199E+04 SP= 0.00E+00 SK= 0.00E+00
     4370 T=  3803. E= -.27072692E+05 F= -.30541226E+05 EK= 0.34685E+04 SP= 0.00E+00 SK= 0.00E+00
     4380 T=  3763. E= -.27072667E+05 F= -.30503834E+05 EK= 0.34312E+04 SP= 0.00E+00 SK= 0.00E+00
     4390 T=  3812. E= -.27072860E+05 F= -.30549125E+05 EK= 0.34763E+04 SP= 0.00E+00 SK= 0.00E+00
     4400 T=  3736. E= -.27072553E+05 F= -.30479593E+05 EK= 0.34070E+04 SP= 0.00E+00 SK= 0.00E+00
     4410 T=  3802. E= -.27072715E+05 F= -.30540105E+05 EK= 0.34674E+04 SP= 0.00E+00 SK= 0.00E+00
     4420 T=  3824. E= -.27072767E+05 F= -.30560220E+05 EK= 0.34875E+04 SP= 0.00E+00 SK= 0.00E+00
     4430 T=  3747. E= -.27072600E+05 F= -.30489835E+05 EK= 0.34172E+04 SP= 0.00E+00 SK= 0.00E+00
     4440 T=  3808. E= -.27072698E+05 F= -.30545217E+05 EK= 0.34725E+04 SP= 0.00E+00 SK= 0.00E+00
     4450 T=  3843. E= -.27072710E+05 F= -.30577430E+05 EK= 0.35047E+04 SP= 0.00E+00 SK= 0.00E+00
     4460 T=  3794. E= -.27072637E+05 F= -.30532688E+05 EK= 0.34601E+04 SP= 0.00E+00 SK= 0.00E+00
     4470 T=  3762. E= -.27072712E+05 F= -.30503338E+05 EK= 0.34306E+04 SP= 0.00E+00 SK= 0.00E+00
     4480 T=  3763. E= -.27072606E+05 F= -.30504227E+05 EK= 0.34316E+04 SP= 0.00E+00 SK= 0.00E+00
     4490 T=  3783. E= -.27072744E+05 F= -.30522490E+05 EK= 0.34497E+04 SP= 0.00E+00 SK= 0.00E+00
     4500 T=  3780. E= -.27072710E+05 F= -.30519471E+05 EK= 0.34468E+04 SP= 0.00E+00 SK= 0.00E+00
     4510 T=  3783. E= -.27072692E+05 F= -.30522482E+05 EK= 0.34498E+04 SP= 0.00E+00 SK= 0.00E+00
     4520 T=  3779. E= -.27072751E+05 F= -.30518692E+05 EK= 0.34459E+04 SP= 0.00E+00 SK= 0.00E+00
     4530 T=  3765. E= -.27072761E+05 F= -.30506027E+05 EK= 0.34333E+04 SP= 0.00E+00 SK= 0.00E+00
     4540 T=  3759. E= -.27072674E+05 F= -.30500435E+05 EK= 0.34278E+04 SP= 0.00E+00 SK= 0.00E+00
     4550 T=  3789. E= -.27072686E+05 F= -.30527968E+05 EK= 0.34553E+04 SP= 0.00E+00 SK= 0.00E+00
     4560 T=  3770. E= -.27072699E+05 F= -.30510939E+05 EK= 0.34382E+04 SP= 0.00E+00 SK= 0.00E+00
     4570 T=  3751. E= -.27072652E+05 F= -.30493680E+05 EK= 0.34210E+04 SP= 0.00E+00 SK= 0.00E+00
     4580 T=  3752. E= -.27072656E+05 F= -.30494646E+05 EK= 0.34220E+04 SP= 0.00E+00 SK= 0.00E+00
     4590 T=  3739. E= -.27072525E+05 F= -.30482103E+05 EK= 0.34096E+04 SP= 0.00E+00 SK= 0.00E+00
     4600 T=  3791. E= -.27072565E+05 F= -.30529951E+05 EK= 0.34574E+04 SP= 0.00E+00 SK= 0.00E+00
     4610 T=  3766. E= -.27072587E+05 F= -.30507112E+05 EK= 0.34345E+04 SP= 0.00E+00 SK= 0.00E+00
     4620 T=  3744. E= -.27072495E+05 F= -.30487109E+05 EK= 0.34146E+04 SP= 0.00E+00 SK= 0.00E+00
     4630 T=  3807. E= -.27072583E+05 F= -.30544704E+05 EK= 0.34721E+04 SP= 0.00E+00 SK= 0.00E+00
     4640 T=  3771. E= -.27072448E+05 F= -.30511451E+05 EK= 0.34390E+04 SP= 0.00E+00 SK= 0.00E+00
     4650 T=  3784. E= -.27072530E+05 F= -.30523694E+05 EK= 0.34512E+04 SP= 0.00E+00 SK= 0.00E+00
     4660 T=  3822. E= -.27072652E+05 F= -.30558459E+05 EK= 0.34858E+04 SP= 0.00E+00 SK= 0.00E+00
     4670 T=  3759. E= -.27072575E+05 F= -.30500590E+05 EK= 0.34280E+04 SP= 0.00E+00 SK= 0.00E+00
     4680 T=  3712. E= -.27072645E+05 F= -.30457703E+05 EK= 0.33851E+04 SP= 0.00E+00 SK= 0.00E+00
     4690 T=  3719. E= -.27072631E+05 F= -.30463925E+05 EK= 0.33913E+04 SP= 0.00E+00 SK= 0.00E+00
     4700 T=  3780. E= -.27072750E+05 F= -.30520084E+05 EK= 0.34473E+04 SP= 0.00E+00 SK= 0.00E+00
     4710 T=  3809. E= -.27072772E+05 F= -.30545912E+05 EK= 0.34731E+04 SP= 0.00E+00 SK= 0.00E+00
     4720 T=  3791. E= -.27072693E+05 F= -.30529612E+05 EK= 0.34569E+04 SP= 0.00E+00 SK= 0.00E+00
     4730 T=  3761. E= -.27072614E+05 F= -.30502218E+05 EK= 0.34296E+04 SP= 0.00E+00 SK= 0.00E+00
     4740 T=  3767. E= -.27072635E+05 F= -.30507650E+05 EK= 0.34350E+04 SP= 0.00E+00 SK= 0.00E+00
     4750 T=  3781. E= -.27072676E+05 F= -.30521123E+05 EK= 0.34484E+04 SP= 0.00E+00 SK= 0.00E+00
     4760 T=  3749. E= -.27072535E+05 F= -.30491264E+05 EK= 0.34187E+04 SP= 0.00E+00 SK= 0.00E+00
     4770 T=  3776. E= -.27072710E+05 F= -.30516328E+05 EK= 0.34436E+04 SP= 0.00E+00 SK= 0.00E+00
     4780 T=  3730. E= -.27072546E+05 F= -.30474343E+05 EK= 0.34018E+04 SP= 0.00E+00 SK= 0.00E+00
     4790 T=  3747. E= -.27072605E+05 F= -.30489192E+05 EK= 0.34166E+04 SP= 0.00E+00 SK= 0.00E+00
     4800 T=  3773. E= -.27072663E+05 F= -.30513086E+05 EK= 0.34404E+04 SP= 0.00E+00 SK= 0.00E+00
     4810 T=  3748. E= -.27072567E+05 F= -.30490578E+05 EK= 0.34180E+04 SP= 0.00E+00 SK= 0.00E+00
     4820 T=  3772. E= -.27072606E+05 F= -.30512075E+05 EK= 0.34395E+04 SP= 0.00E+00 SK= 0.00E+00
     4830 T=  3761. E= -.27072641E+05 F= -.30502587E+05 EK= 0.34299E+04 SP= 0.00E+00 SK= 0.00E+00
     4840 T=  3748. E= -.27072735E+05 F= -.30490816E+05 EK= 0.34181E+04 SP= 0.00E+00 SK= 0.00E+00
     4850 T=  3737. E= -.27072593E+05 F= -.30480870E+05 EK= 0.34083E+04 SP= 0.00E+00 SK= 0.00E+00
     4860 T=  3774. E= -.27072734E+05 F= -.30514136E+05 EK= 0.34414E+04 SP= 0.00E+00 SK= 0.00E+00
     4870 T=  3750. E= -.27072602E+05 F= -.30492309E+05 EK= 0.34197E+04 SP= 0.00E+00 SK= 0.00E+00
     4880 T=  3762. E= -.27072709E+05 F= -.30503144E+05 EK= 0.34304E+04 SP= 0.00E+00 SK= 0.00E+00
     4890 T=  3742. E= -.27072729E+05 F= -.30485586E+05 EK= 0.34129E+04 SP= 0.00E+00 SK= 0.00E+00
     4900 T=  3719. E= -.27072721E+05 F= -.30464527E+05 EK= 0.33918E+04 SP= 0.00E+00 SK= 0.00E+00
     4910 T=  3751. E= -.27072792E+05 F= -.30493844E+05 EK= 0.34211E+04 SP= 0.00E+00 SK= 0.00E+00
     4920 T=  3725. E= -.27072765E+05 F= -.30469770E+05 EK= 0.33970E+04 SP= 0.00E+00 SK= 0.00E+00
     4930 T=  3699. E= -.27072790E+05 F= -.30445877E+05 EK= 0.33731E+04 SP= 0.00E+00 SK= 0.00E+00
     4940 T=  3739. E= -.27072856E+05 F= -.30482757E+05 EK= 0.34099E+04 SP= 0.00E+00 SK= 0.00E+00
     4950 T=  3751. E= -.27072861E+05 F= -.30493212E+05 EK= 0.34204E+04 SP= 0.00E+00 SK= 0.00E+00
     4960 T=  3718. E= -.27072788E+05 F= -.30463731E+05 EK= 0.33909E+04 SP= 0.00E+00 SK= 0.00E+00
     4970 T=  3749. E= -.27072824E+05 F= -.30491773E+05 EK= 0.34189E+04 SP= 0.00E+00 SK= 0.00E+00
     4980 T=  3763. E= -.27072987E+05 F= -.30504646E+05 EK= 0.34317E+04 SP= 0.00E+00 SK= 0.00E+00
     4990 T=  3690. E= -.27072838E+05 F= -.30437790E+05 EK= 0.33650E+04 SP= 0.00E+00 SK= 0.00E+00
At line 1940 of file md.f90
Fortran runtime error: Unit number is negative and unit was not already opened with OPEN(NEWUNIT=...)

Error termination. Backtrace:
At line 1940 of file md.f90
Fortran runtime error: Unit number is negative and unit was not already opened with OPEN(NEWUNIT=...)

Error termination. Backtrace:
At line 1940 of file md.f90
Fortran runtime error: Unit number is negative and unit was not already opened with OPEN(NEWUNIT=...)

Error termination. Backtrace:
At line 1940 of file md.f90
Fortran runtime error: Unit number is negative and unit was not already opened with OPEN(NEWUNIT=...)

Error termination. Backtrace:
At line 1940 of file md.f90
Fortran runtime error: Unit number is negative and unit was not already opened with OPEN(NEWUNIT=...)

Error termination. Backtrace:
     5000 T=  3744. E= -.27072960E+05 F= -.30487235E+05 EK= 0.34143E+04 SP= 0.00E+00 SK= 0.00E+00
Rc and Rl:   5.500000  7.321000

Average number of steps between two list updates:  18.80
Average number of atoms in the shell:     0.01
#0  0x7f3acf650d11 in ???
#1  0x7f3acf651859 in ???
#2  0x7f3acf65253f in ???
#3  0x55aec36cb0bc in ???
#4  0x55aec36c692e in ???
#5  0x7f3acf2e7082 in __libc_start_main
	at ../csu/libc-start.c:308
#6  0x55aec36c696d in ???
#7  0xffffffffffffffff in ???
#0  0x7f65f5edcd11 in ???
#1  0x7f65f5edd859 in ???
#2  0x7f65f5ede53f in ???
#3  0x563e1aef70bc in ???
#4  0x563e1aef292e in ???
#5  0x7f65f5b73082 in __libc_start_main
	at ../csu/libc-start.c:308
#6  0x563e1aef296d in ???
#7  0xffffffffffffffff in ???
#0  0x7f0a71649d11 in ???
#1  0x7f0a7164a859 in ???
#2  0x7f0a7164b53f in ???
#3  0x555723cec0bc in ???
#4  0x555723ce792e in ???
#5  0x7f0a712e0082 in __libc_start_main
	at ../csu/libc-start.c:308
#6  0x555723ce796d in ???
#7  0xffffffffffffffff in ???
#0  0x7f2c8feaed11 in ???
#1  0x7f2c8feaf859 in ???
#2  0x7f2c8feb053f in ???
#3  0x562348de00bc in ???
#4  0x562348ddb92e in ???
#5  0x7f2c8fb45082 in __libc_start_main
	at ../csu/libc-start.c:308
#6  0x562348ddb96d in ???
#7  0xffffffffffffffff in ???
#0  0x7f253d062d11 in ???
#1  0x7f253d063859 in ???
#2  0x7f253d06453f in ???
#3  0x561b7cff60bc in ???
#4  0x561b7cff192e in ???
#5  0x7f253ccf9082 in __libc_start_main
	at ../csu/libc-start.c:308
#6  0x561b7cff196d in ???
#7  0xffffffffffffffff in ???
