 running on    6 nodes
 distr:  one band on    1 nodes,    6 groups
 md.x 0.99
 POSCAR found :  1 types and     7056 ions
Rc and Rl:   5.500000  7.321000
 TIPO = eam     
 TIPO1 = uknown p
 Using EAM

 EAM parameters: 
 C  =   9.9634  EPS  = 0.2048  A  = 3.5678  M  = 3.127  N  =  6.366  R1 =   5.500000


 ----------------------------------------------------------------------------- 
|                                                                             |
|           W    W    AA    RRRRR   N    N  II  N    N   GGGG   !!!           |
|           W    W   A  A   R    R  NN   N  II  NN   N  G    G  !!!           |
|           W    W  A    A  R    R  N N  N  II  N N  N  G       !!!           |
|           W WW W  AAAAAA  RRRRR   N  N N  II  N  N N  G  GGG   !            |
|           WW  WW  A    A  R   R   N   NN  II  N   NN  G    G                |
|           W    W  A    A  R    R  N    N  II  N    N   GGGG   !!!           |
|                                                                             |
|      VASP found  21165 degrees of freedom                                   |
|      the temperature will equal 2*E(kin)/ (degrees of freedom)              |
|      this differs from previous releases, where T was 2*E(kin)/(3 NIONS).   |
|      The new definition is more consistent                                  |
|                                                                             |
 ----------------------------------------------------------------------------- 

 Random init:       10461       18032
 Random init:       10461       18032
 Random init:       10461       18032
 Random init:       10461       18032
 alloco spazio per displ
 Random init:       10461       18032
 Random init:       10461       18032
       10 T=  3517. E= -.12846881E+05 F= -.16053899E+05 EK= 0.32070E+04 SP= 0.00E+00 SK= 0.00E+00
       20 T=  3562. E= -.12846772E+05 F= -.16094765E+05 EK= 0.32480E+04 SP= 0.00E+00 SK= 0.00E+00
       30 T=  3645. E= -.12846741E+05 F= -.16171195E+05 EK= 0.33245E+04 SP= 0.00E+00 SK= 0.00E+00
       40 T=  3753. E= -.12846761E+05 F= -.16269528E+05 EK= 0.34228E+04 SP= 0.00E+00 SK= 0.00E+00
       50 T=  3856. E= -.12846772E+05 F= -.16363086E+05 EK= 0.35163E+04 SP= 0.00E+00 SK= 0.00E+00
       60 T=  3940. E= -.12846735E+05 F= -.16440151E+05 EK= 0.35934E+04 SP= 0.00E+00 SK= 0.00E+00
       70 T=  3990. E= -.12846624E+05 F= -.16485264E+05 EK= 0.36386E+04 SP= 0.00E+00 SK= 0.00E+00
       80 T=  4068. E= -.12846642E+05 F= -.16556749E+05 EK= 0.37101E+04 SP= 0.00E+00 SK= 0.00E+00
       90 T=  4161. E= -.12846555E+05 F= -.16640907E+05 EK= 0.37944E+04 SP= 0.00E+00 SK= 0.00E+00
      100 T=  4263. E= -.12846617E+05 F= -.16734121E+05 EK= 0.38875E+04 SP= 0.00E+00 SK= 0.00E+00
      110 T=  4320. E= -.12846461E+05 F= -.16785600E+05 EK= 0.39391E+04 SP= 0.00E+00 SK= 0.00E+00
      120 T=  4441. E= -.12846504E+05 F= -.16896068E+05 EK= 0.40496E+04 SP= 0.00E+00 SK= 0.00E+00
      130 T=  4549. E= -.12846463E+05 F= -.16994848E+05 EK= 0.41484E+04 SP= 0.00E+00 SK= 0.00E+00
      140 T=  4617. E= -.12846376E+05 F= -.17057038E+05 EK= 0.42107E+04 SP= 0.00E+00 SK= 0.00E+00
      150 T=  4727. E= -.12846441E+05 F= -.17157154E+05 EK= 0.43107E+04 SP= 0.00E+00 SK= 0.00E+00
      160 T=  4813. E= -.12846383E+05 F= -.17235610E+05 EK= 0.43892E+04 SP= 0.00E+00 SK= 0.00E+00
      170 T=  4911. E= -.12846412E+05 F= -.17325122E+05 EK= 0.44787E+04 SP= 0.00E+00 SK= 0.00E+00
      180 T=  4984. E= -.12846343E+05 F= -.17391026E+05 EK= 0.45447E+04 SP= 0.00E+00 SK= 0.00E+00
      190 T=  5055. E= -.12846374E+05 F= -.17456267E+05 EK= 0.46099E+04 SP= 0.00E+00 SK= 0.00E+00
      200 T=  5120. E= -.12846356E+05 F= -.17515347E+05 EK= 0.46690E+04 SP= 0.00E+00 SK= 0.00E+00
      210 T=  5177. E= -.12846294E+05 F= -.17567117E+05 EK= 0.47208E+04 SP= 0.00E+00 SK= 0.00E+00
      220 T=  5245. E= -.12846311E+05 F= -.17629323E+05 EK= 0.47830E+04 SP= 0.00E+00 SK= 0.00E+00
      230 T=  5296. E= -.12846263E+05 F= -.17675456E+05 EK= 0.48292E+04 SP= 0.00E+00 SK= 0.00E+00
      240 T=  5321. E= -.12846238E+05 F= -.17698872E+05 EK= 0.48526E+04 SP= 0.00E+00 SK= 0.00E+00
      250 T=  5358. E= -.12846278E+05 F= -.17732460E+05 EK= 0.48862E+04 SP= 0.00E+00 SK= 0.00E+00
      260 T=  5388. E= -.12846252E+05 F= -.17760108E+05 EK= 0.49139E+04 SP= 0.00E+00 SK= 0.00E+00
      270 T=  5413. E= -.12846227E+05 F= -.17782933E+05 EK= 0.49367E+04 SP= 0.00E+00 SK= 0.00E+00
      280 T=  5453. E= -.12846197E+05 F= -.17819388E+05 EK= 0.49732E+04 SP= 0.00E+00 SK= 0.00E+00
      290 T=  5485. E= -.12846206E+05 F= -.17848265E+05 EK= 0.50021E+04 SP= 0.00E+00 SK= 0.00E+00
      300 T=  5503. E= -.12846185E+05 F= -.17864310E+05 EK= 0.50181E+04 SP= 0.00E+00 SK= 0.00E+00
      310 T=  5538. E= -.12846217E+05 F= -.17896918E+05 EK= 0.50507E+04 SP= 0.00E+00 SK= 0.00E+00
      320 T=  5556. E= -.12846215E+05 F= -.17912908E+05 EK= 0.50667E+04 SP= 0.00E+00 SK= 0.00E+00
      330 T=  5560. E= -.12846184E+05 F= -.17916455E+05 EK= 0.50703E+04 SP= 0.00E+00 SK= 0.00E+00
      340 T=  5574. E= -.12846200E+05 F= -.17929527E+05 EK= 0.50833E+04 SP= 0.00E+00 SK= 0.00E+00
      350 T=  5575. E= -.12846205E+05 F= -.17930685E+05 EK= 0.50845E+04 SP= 0.00E+00 SK= 0.00E+00
      360 T=  5556. E= -.12846167E+05 F= -.17912639E+05 EK= 0.50665E+04 SP= 0.00E+00 SK= 0.00E+00
      370 T=  5542. E= -.12846174E+05 F= -.17900000E+05 EK= 0.50538E+04 SP= 0.00E+00 SK= 0.00E+00
      380 T=  5535. E= -.12846175E+05 F= -.17893564E+05 EK= 0.50474E+04 SP= 0.00E+00 SK= 0.00E+00
      390 T=  5536. E= -.12846158E+05 F= -.17894994E+05 EK= 0.50488E+04 SP= 0.00E+00 SK= 0.00E+00
      400 T=  5524. E= -.12846136E+05 F= -.17883381E+05 EK= 0.50372E+04 SP= 0.00E+00 SK= 0.00E+00
      410 T=  5491. E= -.12846114E+05 F= -.17853106E+05 EK= 0.50070E+04 SP= 0.00E+00 SK= 0.00E+00
      420 T=  5461. E= -.12846074E+05 F= -.17826182E+05 EK= 0.49801E+04 SP= 0.00E+00 SK= 0.00E+00
      430 T=  5441. E= -.12846081E+05 F= -.17807999E+05 EK= 0.49619E+04 SP= 0.00E+00 SK= 0.00E+00
      440 T=  5416. E= -.12846120E+05 F= -.17785229E+05 EK= 0.49391E+04 SP= 0.00E+00 SK= 0.00E+00
      450 T=  5390. E= -.12846136E+05 F= -.17761764E+05 EK= 0.49156E+04 SP= 0.00E+00 SK= 0.00E+00
      460 T=  5359. E= -.12846138E+05 F= -.17733616E+05 EK= 0.48875E+04 SP= 0.00E+00 SK= 0.00E+00
      470 T=  5329. E= -.12846134E+05 F= -.17706227E+05 EK= 0.48601E+04 SP= 0.00E+00 SK= 0.00E+00
      480 T=  5303. E= -.12846144E+05 F= -.17681978E+05 EK= 0.48358E+04 SP= 0.00E+00 SK= 0.00E+00
      490 T=  5269. E= -.12846113E+05 F= -.17650819E+05 EK= 0.48047E+04 SP= 0.00E+00 SK= 0.00E+00
      500 T=  5228. E= -.12846111E+05 F= -.17613729E+05 EK= 0.47676E+04 SP= 0.00E+00 SK= 0.00E+00
      510 T=  5179. E= -.12846095E+05 F= -.17568812E+05 EK= 0.47227E+04 SP= 0.00E+00 SK= 0.00E+00
      520 T=  5129. E= -.12846084E+05 F= -.17523568E+05 EK= 0.46775E+04 SP= 0.00E+00 SK= 0.00E+00
      530 T=  5099. E= -.12846074E+05 F= -.17495773E+05 EK= 0.46497E+04 SP= 0.00E+00 SK= 0.00E+00
      540 T=  5072. E= -.12846102E+05 F= -.17471445E+05 EK= 0.46253E+04 SP= 0.00E+00 SK= 0.00E+00
      550 T=  5029. E= -.12846073E+05 F= -.17431755E+05 EK= 0.45857E+04 SP= 0.00E+00 SK= 0.00E+00
      560 T=  4983. E= -.12846075E+05 F= -.17390446E+05 EK= 0.45444E+04 SP= 0.00E+00 SK= 0.00E+00
      570 T=  4939. E= -.12846077E+05 F= -.17349782E+05 EK= 0.45037E+04 SP= 0.00E+00 SK= 0.00E+00
      580 T=  4893. E= -.12846077E+05 F= -.17307759E+05 EK= 0.44617E+04 SP= 0.00E+00 SK= 0.00E+00
      590 T=  4850. E= -.12846068E+05 F= -.17268839E+05 EK= 0.44228E+04 SP= 0.00E+00 SK= 0.00E+00
      600 T=  4815. E= -.12846088E+05 F= -.17236720E+05 EK= 0.43906E+04 SP= 0.00E+00 SK= 0.00E+00
      610 T=  4783. E= -.12846090E+05 F= -.17208189E+05 EK= 0.43621E+04 SP= 0.00E+00 SK= 0.00E+00
      620 T=  4754. E= -.12846134E+05 F= -.17181728E+05 EK= 0.43356E+04 SP= 0.00E+00 SK= 0.00E+00
      630 T=  4724. E= -.12846151E+05 F= -.17153948E+05 EK= 0.43078E+04 SP= 0.00E+00 SK= 0.00E+00
      640 T=  4685. E= -.12846147E+05 F= -.17118982E+05 EK= 0.42728E+04 SP= 0.00E+00 SK= 0.00E+00
      650 T=  4653. E= -.12846163E+05 F= -.17089411E+05 EK= 0.42432E+04 SP= 0.00E+00 SK= 0.00E+00
      660 T=  4625. E= -.12846217E+05 F= -.17063637E+05 EK= 0.42174E+04 SP= 0.00E+00 SK= 0.00E+00
      670 T=  4600. E= -.12846277E+05 F= -.17041205E+05 EK= 0.41949E+04 SP= 0.00E+00 SK= 0.00E+00
      680 T=  4558. E= -.12846246E+05 F= -.17003087E+05 EK= 0.41568E+04 SP= 0.00E+00 SK= 0.00E+00
      690 T=  4507. E= -.12846220E+05 F= -.16956033E+05 EK= 0.41098E+04 SP= 0.00E+00 SK= 0.00E+00
      700 T=  4464. E= -.12846230E+05 F= -.16917369E+05 EK= 0.40711E+04 SP= 0.00E+00 SK= 0.00E+00
      710 T=  4423. E= -.12846304E+05 F= -.16879922E+05 EK= 0.40336E+04 SP= 0.00E+00 SK= 0.00E+00
      720 T=  4366. E= -.12846306E+05 F= -.16827529E+05 EK= 0.39812E+04 SP= 0.00E+00 SK= 0.00E+00
      730 T=  4348. E= -.12846367E+05 F= -.16811893E+05 EK= 0.39655E+04 SP= 0.00E+00 SK= 0.00E+00
      740 T=  4305. E= -.12846330E+05 F= -.16772163E+05 EK= 0.39258E+04 SP= 0.00E+00 SK= 0.00E+00
      750 T=  4267. E= -.12846360E+05 F= -.16737252E+05 EK= 0.38909E+04 SP= 0.00E+00 SK= 0.00E+00
      760 T=  4244. E= -.12846318E+05 F= -.16716333E+05 EK= 0.38700E+04 SP= 0.00E+00 SK= 0.00E+00
      770 T=  4251. E= -.12846441E+05 F= -.16722867E+05 EK= 0.38764E+04 SP= 0.00E+00 SK= 0.00E+00
      780 T=  4241. E= -.12846511E+05 F= -.16713588E+05 EK= 0.38671E+04 SP= 0.00E+00 SK= 0.00E+00
      790 T=  4197. E= -.12846491E+05 F= -.16674267E+05 EK= 0.38278E+04 SP= 0.00E+00 SK= 0.00E+00
      800 T=  4138. E= -.12846506E+05 F= -.16619714E+05 EK= 0.37732E+04 SP= 0.00E+00 SK= 0.00E+00
      810 T=  4124. E= -.12846516E+05 F= -.16606962E+05 EK= 0.37604E+04 SP= 0.00E+00 SK= 0.00E+00
      820 T=  4145. E= -.12846572E+05 F= -.16626206E+05 EK= 0.37796E+04 SP= 0.00E+00 SK= 0.00E+00
      830 T=  4155. E= -.12846601E+05 F= -.16635836E+05 EK= 0.37892E+04 SP= 0.00E+00 SK= 0.00E+00
      840 T=  4161. E= -.12846595E+05 F= -.16641444E+05 EK= 0.37948E+04 SP= 0.00E+00 SK= 0.00E+00
      850 T=  4135. E= -.12846550E+05 F= -.16617267E+05 EK= 0.37707E+04 SP= 0.00E+00 SK= 0.00E+00
      860 T=  4138. E= -.12846626E+05 F= -.16620127E+05 EK= 0.37735E+04 SP= 0.00E+00 SK= 0.00E+00
      870 T=  4148. E= -.12846616E+05 F= -.16629360E+05 EK= 0.37827E+04 SP= 0.00E+00 SK= 0.00E+00
      880 T=  4162. E= -.12846604E+05 F= -.16641996E+05 EK= 0.37954E+04 SP= 0.00E+00 SK= 0.00E+00
      890 T=  4151. E= -.12846706E+05 F= -.16631962E+05 EK= 0.37853E+04 SP= 0.00E+00 SK= 0.00E+00
      900 T=  4115. E= -.12846622E+05 F= -.16598891E+05 EK= 0.37523E+04 SP= 0.00E+00 SK= 0.00E+00
      910 T=  4143. E= -.12846668E+05 F= -.16624580E+05 EK= 0.37779E+04 SP= 0.00E+00 SK= 0.00E+00
      920 T=  4144. E= -.12846625E+05 F= -.16625784E+05 EK= 0.37792E+04 SP= 0.00E+00 SK= 0.00E+00
      930 T=  4160. E= -.12846635E+05 F= -.16640613E+05 EK= 0.37940E+04 SP= 0.00E+00 SK= 0.00E+00
      940 T=  4158. E= -.12846647E+05 F= -.16638844E+05 EK= 0.37922E+04 SP= 0.00E+00 SK= 0.00E+00
      950 T=  4155. E= -.12846623E+05 F= -.16636014E+05 EK= 0.37894E+04 SP= 0.00E+00 SK= 0.00E+00
      960 T=  4179. E= -.12846653E+05 F= -.16657225E+05 EK= 0.38106E+04 SP= 0.00E+00 SK= 0.00E+00
      970 T=  4169. E= -.12846646E+05 F= -.16648761E+05 EK= 0.38021E+04 SP= 0.00E+00 SK= 0.00E+00
      980 T=  4170. E= -.12846642E+05 F= -.16649271E+05 EK= 0.38026E+04 SP= 0.00E+00 SK= 0.00E+00
      990 T=  4178. E= -.12846648E+05 F= -.16656477E+05 EK= 0.38098E+04 SP= 0.00E+00 SK= 0.00E+00
     1000 T=  4205. E= -.12846721E+05 F= -.16681569E+05 EK= 0.38348E+04 SP= 0.00E+00 SK= 0.00E+00
     1010 T=  4203. E= -.12846583E+05 F= -.16679630E+05 EK= 0.38330E+04 SP= 0.00E+00 SK= 0.00E+00
     1020 T=  4235. E= -.12846664E+05 F= -.16708804E+05 EK= 0.38621E+04 SP= 0.00E+00 SK= 0.00E+00
     1030 T=  4259. E= -.12846579E+05 F= -.16730446E+05 EK= 0.38839E+04 SP= 0.00E+00 SK= 0.00E+00
     1040 T=  4252. E= -.12846580E+05 F= -.16724188E+05 EK= 0.38776E+04 SP= 0.00E+00 SK= 0.00E+00
     1050 T=  4220. E= -.12846550E+05 F= -.16695079E+05 EK= 0.38485E+04 SP= 0.00E+00 SK= 0.00E+00
     1060 T=  4240. E= -.12846718E+05 F= -.16713235E+05 EK= 0.38665E+04 SP= 0.00E+00 SK= 0.00E+00
     1070 T=  4230. E= -.12846585E+05 F= -.16703669E+05 EK= 0.38571E+04 SP= 0.00E+00 SK= 0.00E+00
     1080 T=  4290. E= -.12846674E+05 F= -.16759045E+05 EK= 0.39124E+04 SP= 0.00E+00 SK= 0.00E+00
     1090 T=  4318. E= -.12846685E+05 F= -.16784628E+05 EK= 0.39379E+04 SP= 0.00E+00 SK= 0.00E+00
     1100 T=  4316. E= -.12846675E+05 F= -.16782517E+05 EK= 0.39358E+04 SP= 0.00E+00 SK= 0.00E+00
     1110 T=  4324. E= -.12846720E+05 F= -.16789816E+05 EK= 0.39431E+04 SP= 0.00E+00 SK= 0.00E+00
     1120 T=  4322. E= -.12846695E+05 F= -.16787747E+05 EK= 0.39411E+04 SP= 0.00E+00 SK= 0.00E+00
     1130 T=  4317. E= -.12846660E+05 F= -.16783175E+05 EK= 0.39365E+04 SP= 0.00E+00 SK= 0.00E+00
     1140 T=  4345. E= -.12846631E+05 F= -.16808676E+05 EK= 0.39620E+04 SP= 0.00E+00 SK= 0.00E+00
     1150 T=  4366. E= -.12846581E+05 F= -.16828381E+05 EK= 0.39818E+04 SP= 0.00E+00 SK= 0.00E+00
     1160 T=  4359. E= -.12846655E+05 F= -.16821439E+05 EK= 0.39748E+04 SP= 0.00E+00 SK= 0.00E+00
     1170 T=  4328. E= -.12846568E+05 F= -.16793780E+05 EK= 0.39472E+04 SP= 0.00E+00 SK= 0.00E+00
     1180 T=  4356. E= -.12846605E+05 F= -.16819111E+05 EK= 0.39725E+04 SP= 0.00E+00 SK= 0.00E+00
     1190 T=  4401. E= -.12846608E+05 F= -.16860443E+05 EK= 0.40138E+04 SP= 0.00E+00 SK= 0.00E+00
     1200 T=  4418. E= -.12846650E+05 F= -.16875649E+05 EK= 0.40290E+04 SP= 0.00E+00 SK= 0.00E+00
     1210 T=  4395. E= -.12846621E+05 F= -.16854935E+05 EK= 0.40083E+04 SP= 0.00E+00 SK= 0.00E+00
     1220 T=  4394. E= -.12846679E+05 F= -.16853654E+05 EK= 0.40070E+04 SP= 0.00E+00 SK= 0.00E+00
     1230 T=  4387. E= -.12846647E+05 F= -.16847105E+05 EK= 0.40005E+04 SP= 0.00E+00 SK= 0.00E+00
     1240 T=  4403. E= -.12846649E+05 F= -.16861806E+05 EK= 0.40152E+04 SP= 0.00E+00 SK= 0.00E+00
     1250 T=  4391. E= -.12846632E+05 F= -.16850721E+05 EK= 0.40041E+04 SP= 0.00E+00 SK= 0.00E+00
     1260 T=  4421. E= -.12846677E+05 F= -.16878558E+05 EK= 0.40319E+04 SP= 0.00E+00 SK= 0.00E+00
     1270 T=  4438. E= -.12846621E+05 F= -.16893731E+05 EK= 0.40471E+04 SP= 0.00E+00 SK= 0.00E+00
     1280 T=  4418. E= -.12846593E+05 F= -.16875437E+05 EK= 0.40288E+04 SP= 0.00E+00 SK= 0.00E+00
     1290 T=  4388. E= -.12846535E+05 F= -.16847941E+05 EK= 0.40014E+04 SP= 0.00E+00 SK= 0.00E+00
     1300 T=  4412. E= -.12846615E+05 F= -.16869943E+05 EK= 0.40233E+04 SP= 0.00E+00 SK= 0.00E+00
     1310 T=  4420. E= -.12846541E+05 F= -.16877543E+05 EK= 0.40310E+04 SP= 0.00E+00 SK= 0.00E+00
     1320 T=  4433. E= -.12846599E+05 F= -.16889292E+05 EK= 0.40427E+04 SP= 0.00E+00 SK= 0.00E+00
     1330 T=  4411. E= -.12846562E+05 F= -.16869442E+05 EK= 0.40229E+04 SP= 0.00E+00 SK= 0.00E+00
     1340 T=  4428. E= -.12846640E+05 F= -.16884504E+05 EK= 0.40379E+04 SP= 0.00E+00 SK= 0.00E+00
     1350 T=  4433. E= -.12846583E+05 F= -.16888858E+05 EK= 0.40423E+04 SP= 0.00E+00 SK= 0.00E+00
     1360 T=  4449. E= -.12846621E+05 F= -.16903414E+05 EK= 0.40568E+04 SP= 0.00E+00 SK= 0.00E+00
     1370 T=  4442. E= -.12846626E+05 F= -.16897645E+05 EK= 0.40510E+04 SP= 0.00E+00 SK= 0.00E+00
     1380 T=  4413. E= -.12846554E+05 F= -.16871043E+05 EK= 0.40245E+04 SP= 0.00E+00 SK= 0.00E+00
     1390 T=  4409. E= -.12846580E+05 F= -.16867303E+05 EK= 0.40207E+04 SP= 0.00E+00 SK= 0.00E+00
     1400 T=  4396. E= -.12846589E+05 F= -.16855526E+05 EK= 0.40089E+04 SP= 0.00E+00 SK= 0.00E+00
     1410 T=  4369. E= -.12846512E+05 F= -.16831139E+05 EK= 0.39846E+04 SP= 0.00E+00 SK= 0.00E+00
     1420 T=  4367. E= -.12846502E+05 F= -.16828939E+05 EK= 0.39824E+04 SP= 0.00E+00 SK= 0.00E+00
     1430 T=  4361. E= -.12846506E+05 F= -.16823022E+05 EK= 0.39765E+04 SP= 0.00E+00 SK= 0.00E+00
     1440 T=  4363. E= -.12846492E+05 F= -.16825279E+05 EK= 0.39788E+04 SP= 0.00E+00 SK= 0.00E+00
     1450 T=  4381. E= -.12846515E+05 F= -.16842118E+05 EK= 0.39956E+04 SP= 0.00E+00 SK= 0.00E+00
     1460 T=  4355. E= -.12846433E+05 F= -.16817485E+05 EK= 0.39711E+04 SP= 0.00E+00 SK= 0.00E+00
     1470 T=  4343. E= -.12846431E+05 F= -.16807350E+05 EK= 0.39609E+04 SP= 0.00E+00 SK= 0.00E+00
     1480 T=  4348. E= -.12846363E+05 F= -.16811668E+05 EK= 0.39653E+04 SP= 0.00E+00 SK= 0.00E+00
     1490 T=  4364. E= -.12846366E+05 F= -.16825849E+05 EK= 0.39795E+04 SP= 0.00E+00 SK= 0.00E+00
     1500 T=  4346. E= -.12846375E+05 F= -.16809347E+05 EK= 0.39630E+04 SP= 0.00E+00 SK= 0.00E+00
     1510 T=  4314. E= -.12846370E+05 F= -.16780907E+05 EK= 0.39345E+04 SP= 0.00E+00 SK= 0.00E+00
     1520 T=  4312. E= -.12846342E+05 F= -.16778499E+05 EK= 0.39322E+04 SP= 0.00E+00 SK= 0.00E+00
     1530 T=  4334. E= -.12846353E+05 F= -.16798964E+05 EK= 0.39526E+04 SP= 0.00E+00 SK= 0.00E+00
     1540 T=  4363. E= -.12846337E+05 F= -.16824899E+05 EK= 0.39786E+04 SP= 0.00E+00 SK= 0.00E+00
     1550 T=  4340. E= -.12846228E+05 F= -.16804330E+05 EK= 0.39581E+04 SP= 0.00E+00 SK= 0.00E+00
     1560 T=  4346. E= -.12846302E+05 F= -.16809485E+05 EK= 0.39632E+04 SP= 0.00E+00 SK= 0.00E+00
     1570 T=  4327. E= -.12846329E+05 F= -.16792365E+05 EK= 0.39460E+04 SP= 0.00E+00 SK= 0.00E+00
     1580 T=  4311. E= -.12846345E+05 F= -.16777519E+05 EK= 0.39312E+04 SP= 0.00E+00 SK= 0.00E+00
     1590 T=  4338. E= -.12846414E+05 F= -.16802247E+05 EK= 0.39558E+04 SP= 0.00E+00 SK= 0.00E+00
     1600 T=  4334. E= -.12846427E+05 F= -.16798797E+05 EK= 0.39524E+04 SP= 0.00E+00 SK= 0.00E+00
     1610 T=  4301. E= -.12846394E+05 F= -.16768708E+05 EK= 0.39223E+04 SP= 0.00E+00 SK= 0.00E+00
     1620 T=  4284. E= -.12846338E+05 F= -.16752908E+05 EK= 0.39066E+04 SP= 0.00E+00 SK= 0.00E+00
     1630 T=  4296. E= -.12846384E+05 F= -.16764197E+05 EK= 0.39178E+04 SP= 0.00E+00 SK= 0.00E+00
     1640 T=  4270. E= -.12846314E+05 F= -.16740215E+05 EK= 0.38939E+04 SP= 0.00E+00 SK= 0.00E+00
     1650 T=  4275. E= -.12846307E+05 F= -.16744640E+05 EK= 0.38983E+04 SP= 0.00E+00 SK= 0.00E+00
     1660 T=  4274. E= -.12846348E+05 F= -.16743607E+05 EK= 0.38973E+04 SP= 0.00E+00 SK= 0.00E+00
     1670 T=  4236. E= -.12846303E+05 F= -.16709430E+05 EK= 0.38631E+04 SP= 0.00E+00 SK= 0.00E+00
     1680 T=  4239. E= -.12846327E+05 F= -.16711821E+05 EK= 0.38655E+04 SP= 0.00E+00 SK= 0.00E+00
     1690 T=  4238. E= -.12846404E+05 F= -.16711469E+05 EK= 0.38651E+04 SP= 0.00E+00 SK= 0.00E+00
     1700 T=  4196. E= -.12846380E+05 F= -.16673135E+05 EK= 0.38268E+04 SP= 0.00E+00 SK= 0.00E+00
     1710 T=  4182. E= -.12846491E+05 F= -.16659989E+05 EK= 0.38135E+04 SP= 0.00E+00 SK= 0.00E+00
     1720 T=  4191. E= -.12846458E+05 F= -.16668545E+05 EK= 0.38221E+04 SP= 0.00E+00 SK= 0.00E+00
     1730 T=  4196. E= -.12846481E+05 F= -.16673384E+05 EK= 0.38269E+04 SP= 0.00E+00 SK= 0.00E+00
     1740 T=  4179. E= -.12846433E+05 F= -.16657810E+05 EK= 0.38114E+04 SP= 0.00E+00 SK= 0.00E+00
     1750 T=  4185. E= -.12846436E+05 F= -.16663076E+05 EK= 0.38166E+04 SP= 0.00E+00 SK= 0.00E+00
     1760 T=  4177. E= -.12846439E+05 F= -.16655616E+05 EK= 0.38092E+04 SP= 0.00E+00 SK= 0.00E+00
     1770 T=  4170. E= -.12846444E+05 F= -.16649093E+05 EK= 0.38026E+04 SP= 0.00E+00 SK= 0.00E+00
     1780 T=  4158. E= -.12846420E+05 F= -.16638112E+05 EK= 0.37917E+04 SP= 0.00E+00 SK= 0.00E+00
     1790 T=  4165. E= -.12846419E+05 F= -.16644493E+05 EK= 0.37981E+04 SP= 0.00E+00 SK= 0.00E+00
     1800 T=  4181. E= -.12846402E+05 F= -.16659081E+05 EK= 0.38127E+04 SP= 0.00E+00 SK= 0.00E+00
     1810 T=  4158. E= -.12846355E+05 F= -.16638302E+05 EK= 0.37919E+04 SP= 0.00E+00 SK= 0.00E+00
     1820 T=  4111. E= -.12846337E+05 F= -.16595524E+05 EK= 0.37492E+04 SP= 0.00E+00 SK= 0.00E+00
     1830 T=  4083. E= -.12846283E+05 F= -.16569574E+05 EK= 0.37233E+04 SP= 0.00E+00 SK= 0.00E+00
     1840 T=  4099. E= -.12846295E+05 F= -.16584696E+05 EK= 0.37384E+04 SP= 0.00E+00 SK= 0.00E+00
     1850 T=  4112. E= -.12846273E+05 F= -.16596534E+05 EK= 0.37503E+04 SP= 0.00E+00 SK= 0.00E+00
     1860 T=  4107. E= -.12846221E+05 F= -.16591131E+05 EK= 0.37449E+04 SP= 0.00E+00 SK= 0.00E+00
     1870 T=  4112. E= -.12846274E+05 F= -.16596485E+05 EK= 0.37502E+04 SP= 0.00E+00 SK= 0.00E+00
     1880 T=  4097. E= -.12846258E+05 F= -.16582616E+05 EK= 0.37364E+04 SP= 0.00E+00 SK= 0.00E+00
     1890 T=  4076. E= -.12846187E+05 F= -.16563256E+05 EK= 0.37171E+04 SP= 0.00E+00 SK= 0.00E+00
     1900 T=  4086. E= -.12846247E+05 F= -.16572604E+05 EK= 0.37264E+04 SP= 0.00E+00 SK= 0.00E+00
     1910 T=  4094. E= -.12846209E+05 F= -.16579742E+05 EK= 0.37335E+04 SP= 0.00E+00 SK= 0.00E+00
     1920 T=  4104. E= -.12846248E+05 F= -.16589083E+05 EK= 0.37428E+04 SP= 0.00E+00 SK= 0.00E+00
     1930 T=  4080. E= -.12846221E+05 F= -.16566763E+05 EK= 0.37205E+04 SP= 0.00E+00 SK= 0.00E+00
     1940 T=  4067. E= -.12846235E+05 F= -.16555140E+05 EK= 0.37089E+04 SP= 0.00E+00 SK= 0.00E+00
     1950 T=  4059. E= -.12846231E+05 F= -.16547692E+05 EK= 0.37015E+04 SP= 0.00E+00 SK= 0.00E+00
     1960 T=  4055. E= -.12846195E+05 F= -.16543934E+05 EK= 0.36977E+04 SP= 0.00E+00 SK= 0.00E+00
     1970 T=  4046. E= -.12846183E+05 F= -.16535743E+05 EK= 0.36896E+04 SP= 0.00E+00 SK= 0.00E+00
     1980 T=  4055. E= -.12846217E+05 F= -.16544046E+05 EK= 0.36978E+04 SP= 0.00E+00 SK= 0.00E+00
     1990 T=  4044. E= -.12846245E+05 F= -.16534104E+05 EK= 0.36879E+04 SP= 0.00E+00 SK= 0.00E+00
At line 1940 of file md.f90
Fortran runtime error: Unit number is negative and unit was not already opened with OPEN(NEWUNIT=...)

Error termination. Backtrace:
At line 1940 of file md.f90
Fortran runtime error: Unit number is negative and unit was not already opened with OPEN(NEWUNIT=...)

Error termination. Backtrace:
At line 1940 of file md.f90
Fortran runtime error: Unit number is negative and unit was not already opened with OPEN(NEWUNIT=...)

Error termination. Backtrace:
At line 1940 of file md.f90
Fortran runtime error: Unit number is negative and unit was not already opened with OPEN(NEWUNIT=...)

Error termination. Backtrace:
At line 1940 of file md.f90
Fortran runtime error: Unit number is negative and unit was not already opened with OPEN(NEWUNIT=...)

Error termination. Backtrace:
     2000 T=  4034. E= -.12846220E+05 F= -.16524760E+05 EK= 0.36785E+04 SP= 0.00E+00 SK= 0.00E+00
Rc and Rl:   5.500000  7.321000

Average number of steps between two list updates:  15.50
Average number of atoms in the shell:     0.00
#0  0x7f980abffd11 in ???
#1  0x7f980ac00859 in ???
#2  0x7f980ac0153f in ???
#3  0x563714f370bc in ???
#4  0x563714f3292e in ???
#5  0x7f980a896082 in __libc_start_main
	at ../csu/libc-start.c:308
#6  0x563714f3296d in ???
#7  0xffffffffffffffff in ???
#0  0x7f9fc3518d11 in ???
#1  0x7f9fc3519859 in ???
#2  0x7f9fc351a53f in ???
#3  0x558d4f14a0bc in ???
#4  0x558d4f14592e in ???
#5  0x7f9fc31af082 in __libc_start_main
	at ../csu/libc-start.c:308
#6  0x558d4f14596d in ???
#7  0xffffffffffffffff in ???
#0  0x7f0b4faf3d11 in ???
#1  0x7f0b4faf4859 in ???
#2  0x7f0b4faf553f in ???
#3  0x5654d5fcd0bc in ???
#4  0x5654d5fc892e in ???
#5  0x7f0b4f78a082 in __libc_start_main
	at ../csu/libc-start.c:308
#6  0x5654d5fc896d in ???
#7  0xffffffffffffffff in ???
#0  0x7f9309b62d11 in ???
#1  0x7f9309b63859 in ???
#2  0x7f9309b6453f in ???
#3  0x55dff86520bc in ???
#4  0x55dff864d92e in ???
#5  0x7f93097f9082 in __libc_start_main
	at ../csu/libc-start.c:308
#6  0x55dff864d96d in ???
#7  0xffffffffffffffff in ???
#0  0x7f55b34f8d11 in ???
#1  0x7f55b34f9859 in ???
#2  0x7f55b34fa53f in ???
#3  0x55854beee0bc in ???
#4  0x55854bee992e in ???
#5  0x7f55b318f082 in __libc_start_main
	at ../csu/libc-start.c:308
#6  0x55854bee996d in ???
#7  0xffffffffffffffff in ???
