 running on    6 nodes
 distr:  one band on    1 nodes,    6 groups
 md.x 0.99
 POSCAR found :  1 types and     7056 ions
Rc and Rl:   5.500000  7.321000
 TIPO = eam     
 TIPO1 = uknown p
 Using EAM

 EAM parameters: 
 C  =   9.9634  EPS  = 0.2048  A  = 3.5678  M  = 3.127  N  =  6.366  R1 =   5.500000


 ----------------------------------------------------------------------------- 
|                                                                             |
|           W    W    AA    RRRRR   N    N  II  N    N   GGGG   !!!           |
|           W    W   A  A   R    R  NN   N  II  NN   N  G    G  !!!           |
|           W    W  A    A  R    R  N N  N  II  N N  N  G       !!!           |
|           W WW W  AAAAAA  RRRRR   N  N N  II  N  N N  G  GGG   !            |
|           WW  WW  A    A  R   R   N   NN  II  N   NN  G    G                |
|           W    W  A    A  R    R  N    N  II  N    N   GGGG   !!!           |
|                                                                             |
|      VASP found  21165 degrees of freedom                                   |
|      the temperature will equal 2*E(kin)/ (degrees of freedom)              |
|      this differs from previous releases, where T was 2*E(kin)/(3 NIONS).   |
|      The new definition is more consistent                                  |
|                                                                             |
 ----------------------------------------------------------------------------- 

 Random init:        7278       14849
 Random init:        7278       14849
 Random init:        7278       14849
 Random init:        7278       14849
 Random init:        7278       14849
 Random init:        7278       14849
 alloco spazio per displ
       10 T=  4228. E= -.27596333E+05 F= -.31451939E+05 EK= 0.38556E+04 SP= 0.00E+00 SK= 0.00E+00
       20 T=  4140. E= -.27596060E+05 F= -.31371513E+05 EK= 0.37755E+04 SP= 0.00E+00 SK= 0.00E+00
       30 T=  4118. E= -.27596082E+05 F= -.31351562E+05 EK= 0.37555E+04 SP= 0.00E+00 SK= 0.00E+00
       40 T=  4158. E= -.27596139E+05 F= -.31388251E+05 EK= 0.37921E+04 SP= 0.00E+00 SK= 0.00E+00
       50 T=  4151. E= -.27596199E+05 F= -.31381285E+05 EK= 0.37851E+04 SP= 0.00E+00 SK= 0.00E+00
       60 T=  4111. E= -.27596147E+05 F= -.31345134E+05 EK= 0.37490E+04 SP= 0.00E+00 SK= 0.00E+00
       70 T=  4110. E= -.27596290E+05 F= -.31344630E+05 EK= 0.37483E+04 SP= 0.00E+00 SK= 0.00E+00
       80 T=  4068. E= -.27596049E+05 F= -.31305459E+05 EK= 0.37094E+04 SP= 0.00E+00 SK= 0.00E+00
       90 T=  4098. E= -.27596212E+05 F= -.31333439E+05 EK= 0.37372E+04 SP= 0.00E+00 SK= 0.00E+00
      100 T=  4088. E= -.27596128E+05 F= -.31324280E+05 EK= 0.37282E+04 SP= 0.00E+00 SK= 0.00E+00
      110 T=  4088. E= -.27596170E+05 F= -.31324374E+05 EK= 0.37282E+04 SP= 0.00E+00 SK= 0.00E+00
      120 T=  4092. E= -.27596187E+05 F= -.31327920E+05 EK= 0.37317E+04 SP= 0.00E+00 SK= 0.00E+00
      130 T=  4137. E= -.27596117E+05 F= -.31368963E+05 EK= 0.37728E+04 SP= 0.00E+00 SK= 0.00E+00
      140 T=  4172. E= -.27596164E+05 F= -.31401134E+05 EK= 0.38050E+04 SP= 0.00E+00 SK= 0.00E+00
      150 T=  4122. E= -.27596030E+05 F= -.31355073E+05 EK= 0.37590E+04 SP= 0.00E+00 SK= 0.00E+00
      160 T=  4113. E= -.27595980E+05 F= -.31347156E+05 EK= 0.37512E+04 SP= 0.00E+00 SK= 0.00E+00
      170 T=  4159. E= -.27595983E+05 F= -.31388564E+05 EK= 0.37926E+04 SP= 0.00E+00 SK= 0.00E+00
      180 T=  4162. E= -.27596046E+05 F= -.31391152E+05 EK= 0.37951E+04 SP= 0.00E+00 SK= 0.00E+00
      190 T=  4079. E= -.27595867E+05 F= -.31315686E+05 EK= 0.37198E+04 SP= 0.00E+00 SK= 0.00E+00
      200 T=  4118. E= -.27596046E+05 F= -.31351041E+05 EK= 0.37550E+04 SP= 0.00E+00 SK= 0.00E+00
      210 T=  4110. E= -.27596049E+05 F= -.31343698E+05 EK= 0.37476E+04 SP= 0.00E+00 SK= 0.00E+00
      220 T=  4073. E= -.27595944E+05 F= -.31310555E+05 EK= 0.37146E+04 SP= 0.00E+00 SK= 0.00E+00
      230 T=  4075. E= -.27595978E+05 F= -.31312011E+05 EK= 0.37160E+04 SP= 0.00E+00 SK= 0.00E+00
      240 T=  4065. E= -.27595917E+05 F= -.31303173E+05 EK= 0.37073E+04 SP= 0.00E+00 SK= 0.00E+00
      250 T=  4087. E= -.27595925E+05 F= -.31322642E+05 EK= 0.37267E+04 SP= 0.00E+00 SK= 0.00E+00
      260 T=  4136. E= -.27595919E+05 F= -.31367631E+05 EK= 0.37717E+04 SP= 0.00E+00 SK= 0.00E+00
      270 T=  4167. E= -.27595987E+05 F= -.31396461E+05 EK= 0.38005E+04 SP= 0.00E+00 SK= 0.00E+00
      280 T=  4086. E= -.27595901E+05 F= -.31322340E+05 EK= 0.37264E+04 SP= 0.00E+00 SK= 0.00E+00
      290 T=  4077. E= -.27595864E+05 F= -.31314176E+05 EK= 0.37183E+04 SP= 0.00E+00 SK= 0.00E+00
      300 T=  4137. E= -.27595980E+05 F= -.31368662E+05 EK= 0.37727E+04 SP= 0.00E+00 SK= 0.00E+00
      310 T=  4116. E= -.27595981E+05 F= -.31349481E+05 EK= 0.37535E+04 SP= 0.00E+00 SK= 0.00E+00
      320 T=  4067. E= -.27595747E+05 F= -.31304167E+05 EK= 0.37084E+04 SP= 0.00E+00 SK= 0.00E+00
      330 T=  4156. E= -.27595993E+05 F= -.31386324E+05 EK= 0.37903E+04 SP= 0.00E+00 SK= 0.00E+00
      340 T=  4174. E= -.27595975E+05 F= -.31402561E+05 EK= 0.38066E+04 SP= 0.00E+00 SK= 0.00E+00
      350 T=  4173. E= -.27596043E+05 F= -.31401139E+05 EK= 0.38051E+04 SP= 0.00E+00 SK= 0.00E+00
      360 T=  4139. E= -.27595981E+05 F= -.31370199E+05 EK= 0.37742E+04 SP= 0.00E+00 SK= 0.00E+00
      370 T=  4132. E= -.27596126E+05 F= -.31364126E+05 EK= 0.37680E+04 SP= 0.00E+00 SK= 0.00E+00
      380 T=  4092. E= -.27595959E+05 F= -.31327868E+05 EK= 0.37319E+04 SP= 0.00E+00 SK= 0.00E+00
      390 T=  4143. E= -.27596105E+05 F= -.31374012E+05 EK= 0.37779E+04 SP= 0.00E+00 SK= 0.00E+00
      400 T=  4119. E= -.27596120E+05 F= -.31352582E+05 EK= 0.37565E+04 SP= 0.00E+00 SK= 0.00E+00
      410 T=  4091. E= -.27596105E+05 F= -.31327061E+05 EK= 0.37310E+04 SP= 0.00E+00 SK= 0.00E+00
      420 T=  4140. E= -.27596190E+05 F= -.31371910E+05 EK= 0.37757E+04 SP= 0.00E+00 SK= 0.00E+00
      430 T=  4141. E= -.27596211E+05 F= -.31372089E+05 EK= 0.37759E+04 SP= 0.00E+00 SK= 0.00E+00
      440 T=  4091. E= -.27596229E+05 F= -.31326759E+05 EK= 0.37305E+04 SP= 0.00E+00 SK= 0.00E+00
      450 T=  4097. E= -.27596122E+05 F= -.31332380E+05 EK= 0.37363E+04 SP= 0.00E+00 SK= 0.00E+00
      460 T=  4164. E= -.27596318E+05 F= -.31393625E+05 EK= 0.37973E+04 SP= 0.00E+00 SK= 0.00E+00
      470 T=  4097. E= -.27596102E+05 F= -.31332105E+05 EK= 0.37360E+04 SP= 0.00E+00 SK= 0.00E+00
      480 T=  4118. E= -.27596202E+05 F= -.31351562E+05 EK= 0.37554E+04 SP= 0.00E+00 SK= 0.00E+00
      490 T=  4069. E= -.27595993E+05 F= -.31306823E+05 EK= 0.37108E+04 SP= 0.00E+00 SK= 0.00E+00
      500 T=  4117. E= -.27596154E+05 F= -.31350553E+05 EK= 0.37544E+04 SP= 0.00E+00 SK= 0.00E+00
      510 T=  4154. E= -.27596256E+05 F= -.31384111E+05 EK= 0.37879E+04 SP= 0.00E+00 SK= 0.00E+00
      520 T=  4082. E= -.27596102E+05 F= -.31318722E+05 EK= 0.37226E+04 SP= 0.00E+00 SK= 0.00E+00
      530 T=  4049. E= -.27596043E+05 F= -.31288019E+05 EK= 0.36920E+04 SP= 0.00E+00 SK= 0.00E+00
      540 T=  4104. E= -.27596175E+05 F= -.31339107E+05 EK= 0.37429E+04 SP= 0.00E+00 SK= 0.00E+00
      550 T=  4110. E= -.27596099E+05 F= -.31344102E+05 EK= 0.37480E+04 SP= 0.00E+00 SK= 0.00E+00
      560 T=  4101. E= -.27596146E+05 F= -.31335885E+05 EK= 0.37397E+04 SP= 0.00E+00 SK= 0.00E+00
      570 T=  4083. E= -.27596083E+05 F= -.31319326E+05 EK= 0.37232E+04 SP= 0.00E+00 SK= 0.00E+00
      580 T=  4123. E= -.27596296E+05 F= -.31356612E+05 EK= 0.37603E+04 SP= 0.00E+00 SK= 0.00E+00
      590 T=  4089. E= -.27596139E+05 F= -.31324786E+05 EK= 0.37286E+04 SP= 0.00E+00 SK= 0.00E+00
      600 T=  4081. E= -.27596131E+05 F= -.31317283E+05 EK= 0.37212E+04 SP= 0.00E+00 SK= 0.00E+00
      610 T=  4071. E= -.27596075E+05 F= -.31308890E+05 EK= 0.37128E+04 SP= 0.00E+00 SK= 0.00E+00
      620 T=  4093. E= -.27596163E+05 F= -.31328789E+05 EK= 0.37326E+04 SP= 0.00E+00 SK= 0.00E+00
      630 T=  4108. E= -.27596179E+05 F= -.31342746E+05 EK= 0.37466E+04 SP= 0.00E+00 SK= 0.00E+00
      640 T=  4105. E= -.27596202E+05 F= -.31339315E+05 EK= 0.37431E+04 SP= 0.00E+00 SK= 0.00E+00
      650 T=  4139. E= -.27596199E+05 F= -.31370567E+05 EK= 0.37744E+04 SP= 0.00E+00 SK= 0.00E+00
      660 T=  4137. E= -.27596323E+05 F= -.31369347E+05 EK= 0.37730E+04 SP= 0.00E+00 SK= 0.00E+00
      670 T=  4043. E= -.27596090E+05 F= -.31283228E+05 EK= 0.36871E+04 SP= 0.00E+00 SK= 0.00E+00
      680 T=  4077. E= -.27596404E+05 F= -.31314222E+05 EK= 0.37178E+04 SP= 0.00E+00 SK= 0.00E+00
      690 T=  4078. E= -.27596233E+05 F= -.31315123E+05 EK= 0.37189E+04 SP= 0.00E+00 SK= 0.00E+00
      700 T=  4096. E= -.27596245E+05 F= -.31331593E+05 EK= 0.37353E+04 SP= 0.00E+00 SK= 0.00E+00
      710 T=  4085. E= -.27596195E+05 F= -.31321217E+05 EK= 0.37250E+04 SP= 0.00E+00 SK= 0.00E+00
      720 T=  4127. E= -.27596382E+05 F= -.31359566E+05 EK= 0.37632E+04 SP= 0.00E+00 SK= 0.00E+00
      730 T=  4097. E= -.27596220E+05 F= -.31332753E+05 EK= 0.37365E+04 SP= 0.00E+00 SK= 0.00E+00
      740 T=  4106. E= -.27596386E+05 F= -.31341131E+05 EK= 0.37447E+04 SP= 0.00E+00 SK= 0.00E+00
      750 T=  4063. E= -.27596218E+05 F= -.31301845E+05 EK= 0.37056E+04 SP= 0.00E+00 SK= 0.00E+00
      760 T=  4087. E= -.27596335E+05 F= -.31323357E+05 EK= 0.37270E+04 SP= 0.00E+00 SK= 0.00E+00
      770 T=  4059. E= -.27596251E+05 F= -.31297935E+05 EK= 0.37017E+04 SP= 0.00E+00 SK= 0.00E+00
      780 T=  4055. E= -.27596223E+05 F= -.31294071E+05 EK= 0.36978E+04 SP= 0.00E+00 SK= 0.00E+00
      790 T=  4093. E= -.27596278E+05 F= -.31328614E+05 EK= 0.37323E+04 SP= 0.00E+00 SK= 0.00E+00
      800 T=  4129. E= -.27596362E+05 F= -.31361902E+05 EK= 0.37655E+04 SP= 0.00E+00 SK= 0.00E+00
      810 T=  4111. E= -.27596293E+05 F= -.31345577E+05 EK= 0.37493E+04 SP= 0.00E+00 SK= 0.00E+00
      820 T=  4112. E= -.27596448E+05 F= -.31346675E+05 EK= 0.37502E+04 SP= 0.00E+00 SK= 0.00E+00
      830 T=  4060. E= -.27596285E+05 F= -.31299084E+05 EK= 0.37028E+04 SP= 0.00E+00 SK= 0.00E+00
      840 T=  4123. E= -.27596464E+05 F= -.31355991E+05 EK= 0.37595E+04 SP= 0.00E+00 SK= 0.00E+00
      850 T=  4136. E= -.27596391E+05 F= -.31368144E+05 EK= 0.37718E+04 SP= 0.00E+00 SK= 0.00E+00
      860 T=  4098. E= -.27596427E+05 F= -.31333106E+05 EK= 0.37367E+04 SP= 0.00E+00 SK= 0.00E+00
      870 T=  4058. E= -.27596283E+05 F= -.31296745E+05 EK= 0.37005E+04 SP= 0.00E+00 SK= 0.00E+00
      880 T=  4106. E= -.27596410E+05 F= -.31340445E+05 EK= 0.37440E+04 SP= 0.00E+00 SK= 0.00E+00
      890 T=  4108. E= -.27596289E+05 F= -.31342470E+05 EK= 0.37462E+04 SP= 0.00E+00 SK= 0.00E+00
      900 T=  4116. E= -.27596354E+05 F= -.31350147E+05 EK= 0.37538E+04 SP= 0.00E+00 SK= 0.00E+00
      910 T=  4127. E= -.27596248E+05 F= -.31359887E+05 EK= 0.37636E+04 SP= 0.00E+00 SK= 0.00E+00
      920 T=  4140. E= -.27596488E+05 F= -.31372233E+05 EK= 0.37757E+04 SP= 0.00E+00 SK= 0.00E+00
      930 T=  4017. E= -.27596240E+05 F= -.31259606E+05 EK= 0.36634E+04 SP= 0.00E+00 SK= 0.00E+00
      940 T=  4071. E= -.27596340E+05 F= -.31308519E+05 EK= 0.37122E+04 SP= 0.00E+00 SK= 0.00E+00
      950 T=  4114. E= -.27596405E+05 F= -.31348043E+05 EK= 0.37516E+04 SP= 0.00E+00 SK= 0.00E+00
      960 T=  4085. E= -.27596295E+05 F= -.31321430E+05 EK= 0.37251E+04 SP= 0.00E+00 SK= 0.00E+00
      970 T=  4086. E= -.27596278E+05 F= -.31322499E+05 EK= 0.37262E+04 SP= 0.00E+00 SK= 0.00E+00
      980 T=  4095. E= -.27596304E+05 F= -.31330466E+05 EK= 0.37342E+04 SP= 0.00E+00 SK= 0.00E+00
      990 T=  4073. E= -.27596260E+05 F= -.31310703E+05 EK= 0.37144E+04 SP= 0.00E+00 SK= 0.00E+00
     1000 T=  4137. E= -.27596337E+05 F= -.31369386E+05 EK= 0.37730E+04 SP= 0.00E+00 SK= 0.00E+00
     1010 T=  4145. E= -.27596343E+05 F= -.31375953E+05 EK= 0.37796E+04 SP= 0.00E+00 SK= 0.00E+00
     1020 T=  4107. E= -.27596208E+05 F= -.31341198E+05 EK= 0.37450E+04 SP= 0.00E+00 SK= 0.00E+00
     1030 T=  4167. E= -.27596363E+05 F= -.31396294E+05 EK= 0.37999E+04 SP= 0.00E+00 SK= 0.00E+00
     1040 T=  4106. E= -.27596229E+05 F= -.31340288E+05 EK= 0.37441E+04 SP= 0.00E+00 SK= 0.00E+00
     1050 T=  4103. E= -.27596343E+05 F= -.31337827E+05 EK= 0.37415E+04 SP= 0.00E+00 SK= 0.00E+00
     1060 T=  4097. E= -.27596328E+05 F= -.31332782E+05 EK= 0.37365E+04 SP= 0.00E+00 SK= 0.00E+00
     1070 T=  4076. E= -.27596319E+05 F= -.31313579E+05 EK= 0.37173E+04 SP= 0.00E+00 SK= 0.00E+00
     1080 T=  4120. E= -.27596379E+05 F= -.31353515E+05 EK= 0.37571E+04 SP= 0.00E+00 SK= 0.00E+00
     1090 T=  4121. E= -.27596352E+05 F= -.31354558E+05 EK= 0.37582E+04 SP= 0.00E+00 SK= 0.00E+00
     1100 T=  4105. E= -.27596323E+05 F= -.31339893E+05 EK= 0.37436E+04 SP= 0.00E+00 SK= 0.00E+00
     1110 T=  4122. E= -.27596354E+05 F= -.31354898E+05 EK= 0.37585E+04 SP= 0.00E+00 SK= 0.00E+00
     1120 T=  4114. E= -.27596292E+05 F= -.31348240E+05 EK= 0.37519E+04 SP= 0.00E+00 SK= 0.00E+00
     1130 T=  4112. E= -.27596410E+05 F= -.31345831E+05 EK= 0.37494E+04 SP= 0.00E+00 SK= 0.00E+00
     1140 T=  4075. E= -.27596269E+05 F= -.31312167E+05 EK= 0.37159E+04 SP= 0.00E+00 SK= 0.00E+00
     1150 T=  4092. E= -.27596272E+05 F= -.31328006E+05 EK= 0.37317E+04 SP= 0.00E+00 SK= 0.00E+00
     1160 T=  4091. E= -.27596314E+05 F= -.31326889E+05 EK= 0.37306E+04 SP= 0.00E+00 SK= 0.00E+00
     1170 T=  4057. E= -.27596253E+05 F= -.31295648E+05 EK= 0.36994E+04 SP= 0.00E+00 SK= 0.00E+00
     1180 T=  4056. E= -.27596226E+05 F= -.31294901E+05 EK= 0.36987E+04 SP= 0.00E+00 SK= 0.00E+00
     1190 T=  4137. E= -.27596284E+05 F= -.31368915E+05 EK= 0.37726E+04 SP= 0.00E+00 SK= 0.00E+00
     1200 T=  4140. E= -.27596302E+05 F= -.31371688E+05 EK= 0.37754E+04 SP= 0.00E+00 SK= 0.00E+00
     1210 T=  4082. E= -.27596212E+05 F= -.31318748E+05 EK= 0.37225E+04 SP= 0.00E+00 SK= 0.00E+00
     1220 T=  4130. E= -.27596435E+05 F= -.31363134E+05 EK= 0.37667E+04 SP= 0.00E+00 SK= 0.00E+00
     1230 T=  4113. E= -.27596487E+05 F= -.31347352E+05 EK= 0.37509E+04 SP= 0.00E+00 SK= 0.00E+00
     1240 T=  4058. E= -.27596435E+05 F= -.31296727E+05 EK= 0.37003E+04 SP= 0.00E+00 SK= 0.00E+00
     1250 T=  4068. E= -.27596392E+05 F= -.31306081E+05 EK= 0.37097E+04 SP= 0.00E+00 SK= 0.00E+00
     1260 T=  4131. E= -.27596410E+05 F= -.31363235E+05 EK= 0.37668E+04 SP= 0.00E+00 SK= 0.00E+00
     1270 T=  4191. E= -.27596511E+05 F= -.31417993E+05 EK= 0.38215E+04 SP= 0.00E+00 SK= 0.00E+00
     1280 T=  4132. E= -.27596450E+05 F= -.31364581E+05 EK= 0.37681E+04 SP= 0.00E+00 SK= 0.00E+00
     1290 T=  4079. E= -.27596289E+05 F= -.31315805E+05 EK= 0.37195E+04 SP= 0.00E+00 SK= 0.00E+00
     1300 T=  4122. E= -.27596418E+05 F= -.31355809E+05 EK= 0.37594E+04 SP= 0.00E+00 SK= 0.00E+00
     1310 T=  4076. E= -.27596301E+05 F= -.31313290E+05 EK= 0.37170E+04 SP= 0.00E+00 SK= 0.00E+00
     1320 T=  4063. E= -.27596339E+05 F= -.31301209E+05 EK= 0.37049E+04 SP= 0.00E+00 SK= 0.00E+00
     1330 T=  4081. E= -.27596351E+05 F= -.31317980E+05 EK= 0.37216E+04 SP= 0.00E+00 SK= 0.00E+00
     1340 T=  4081. E= -.27596268E+05 F= -.31317845E+05 EK= 0.37216E+04 SP= 0.00E+00 SK= 0.00E+00
     1350 T=  4132. E= -.27596349E+05 F= -.31364919E+05 EK= 0.37686E+04 SP= 0.00E+00 SK= 0.00E+00
     1360 T=  4168. E= -.27596443E+05 F= -.31397280E+05 EK= 0.38008E+04 SP= 0.00E+00 SK= 0.00E+00
     1370 T=  4120. E= -.27596324E+05 F= -.31353457E+05 EK= 0.37571E+04 SP= 0.00E+00 SK= 0.00E+00
     1380 T=  4119. E= -.27596382E+05 F= -.31352207E+05 EK= 0.37558E+04 SP= 0.00E+00 SK= 0.00E+00
     1390 T=  4141. E= -.27596495E+05 F= -.31372380E+05 EK= 0.37759E+04 SP= 0.00E+00 SK= 0.00E+00
     1400 T=  4145. E= -.27596416E+05 F= -.31376031E+05 EK= 0.37796E+04 SP= 0.00E+00 SK= 0.00E+00
     1410 T=  4168. E= -.27596371E+05 F= -.31397211E+05 EK= 0.38008E+04 SP= 0.00E+00 SK= 0.00E+00
     1420 T=  4188. E= -.27596463E+05 F= -.31415940E+05 EK= 0.38195E+04 SP= 0.00E+00 SK= 0.00E+00
     1430 T=  4109. E= -.27596258E+05 F= -.31342945E+05 EK= 0.37467E+04 SP= 0.00E+00 SK= 0.00E+00
     1440 T=  4135. E= -.27596439E+05 F= -.31366859E+05 EK= 0.37704E+04 SP= 0.00E+00 SK= 0.00E+00
     1450 T=  4097. E= -.27596358E+05 F= -.31332922E+05 EK= 0.37366E+04 SP= 0.00E+00 SK= 0.00E+00
     1460 T=  4023. E= -.27596271E+05 F= -.31264959E+05 EK= 0.36687E+04 SP= 0.00E+00 SK= 0.00E+00
     1470 T=  4069. E= -.27596432E+05 F= -.31306644E+05 EK= 0.37102E+04 SP= 0.00E+00 SK= 0.00E+00
     1480 T=  4092. E= -.27596445E+05 F= -.31328225E+05 EK= 0.37318E+04 SP= 0.00E+00 SK= 0.00E+00
     1490 T=  4075. E= -.27596326E+05 F= -.31312807E+05 EK= 0.37165E+04 SP= 0.00E+00 SK= 0.00E+00
     1500 T=  4098. E= -.27596400E+05 F= -.31333270E+05 EK= 0.37369E+04 SP= 0.00E+00 SK= 0.00E+00
     1510 T=  4092. E= -.27596431E+05 F= -.31328494E+05 EK= 0.37321E+04 SP= 0.00E+00 SK= 0.00E+00
     1520 T=  4082. E= -.27596412E+05 F= -.31318613E+05 EK= 0.37222E+04 SP= 0.00E+00 SK= 0.00E+00
     1530 T=  4146. E= -.27596534E+05 F= -.31377402E+05 EK= 0.37809E+04 SP= 0.00E+00 SK= 0.00E+00
     1540 T=  4137. E= -.27596477E+05 F= -.31368849E+05 EK= 0.37724E+04 SP= 0.00E+00 SK= 0.00E+00
     1550 T=  4097. E= -.27596474E+05 F= -.31332967E+05 EK= 0.37365E+04 SP= 0.00E+00 SK= 0.00E+00
     1560 T=  4108. E= -.27596512E+05 F= -.31342366E+05 EK= 0.37459E+04 SP= 0.00E+00 SK= 0.00E+00
     1570 T=  4107. E= -.27596470E+05 F= -.31341352E+05 EK= 0.37449E+04 SP= 0.00E+00 SK= 0.00E+00
     1580 T=  4125. E= -.27596498E+05 F= -.31358610E+05 EK= 0.37621E+04 SP= 0.00E+00 SK= 0.00E+00
     1590 T=  4132. E= -.27596543E+05 F= -.31364339E+05 EK= 0.37678E+04 SP= 0.00E+00 SK= 0.00E+00
     1600 T=  4094. E= -.27596500E+05 F= -.31330377E+05 EK= 0.37339E+04 SP= 0.00E+00 SK= 0.00E+00
     1610 T=  4071. E= -.27596373E+05 F= -.31308587E+05 EK= 0.37122E+04 SP= 0.00E+00 SK= 0.00E+00
     1620 T=  4153. E= -.27596560E+05 F= -.31383696E+05 EK= 0.37871E+04 SP= 0.00E+00 SK= 0.00E+00
     1630 T=  4085. E= -.27596365E+05 F= -.31321686E+05 EK= 0.37253E+04 SP= 0.00E+00 SK= 0.00E+00
     1640 T=  4058. E= -.27596400E+05 F= -.31296646E+05 EK= 0.37002E+04 SP= 0.00E+00 SK= 0.00E+00
     1650 T=  4078. E= -.27596545E+05 F= -.31315618E+05 EK= 0.37191E+04 SP= 0.00E+00 SK= 0.00E+00
     1660 T=  4041. E= -.27596411E+05 F= -.31281175E+05 EK= 0.36848E+04 SP= 0.00E+00 SK= 0.00E+00
     1670 T=  4086. E= -.27596551E+05 F= -.31322397E+05 EK= 0.37258E+04 SP= 0.00E+00 SK= 0.00E+00
     1680 T=  4070. E= -.27596273E+05 F= -.31307516E+05 EK= 0.37112E+04 SP= 0.00E+00 SK= 0.00E+00
     1690 T=  4129. E= -.27596475E+05 F= -.31362305E+05 EK= 0.37658E+04 SP= 0.00E+00 SK= 0.00E+00
     1700 T=  4093. E= -.27596294E+05 F= -.31329100E+05 EK= 0.37328E+04 SP= 0.00E+00 SK= 0.00E+00
     1710 T=  4117. E= -.27596375E+05 F= -.31351069E+05 EK= 0.37547E+04 SP= 0.00E+00 SK= 0.00E+00
     1720 T=  4154. E= -.27596372E+05 F= -.31384683E+05 EK= 0.37883E+04 SP= 0.00E+00 SK= 0.00E+00
     1730 T=  4135. E= -.27596313E+05 F= -.31367452E+05 EK= 0.37711E+04 SP= 0.00E+00 SK= 0.00E+00
     1740 T=  4106. E= -.27596323E+05 F= -.31340460E+05 EK= 0.37441E+04 SP= 0.00E+00 SK= 0.00E+00
     1750 T=  4153. E= -.27596499E+05 F= -.31383611E+05 EK= 0.37871E+04 SP= 0.00E+00 SK= 0.00E+00
     1760 T=  4053. E= -.27596337E+05 F= -.31292839E+05 EK= 0.36965E+04 SP= 0.00E+00 SK= 0.00E+00
     1770 T=  4037. E= -.27596346E+05 F= -.31278176E+05 EK= 0.36818E+04 SP= 0.00E+00 SK= 0.00E+00
     1780 T=  4132. E= -.27596471E+05 F= -.31364761E+05 EK= 0.37683E+04 SP= 0.00E+00 SK= 0.00E+00
     1790 T=  4148. E= -.27596429E+05 F= -.31379462E+05 EK= 0.37830E+04 SP= 0.00E+00 SK= 0.00E+00
     1800 T=  4168. E= -.27596575E+05 F= -.31397083E+05 EK= 0.38005E+04 SP= 0.00E+00 SK= 0.00E+00
     1810 T=  4082. E= -.27596363E+05 F= -.31318464E+05 EK= 0.37221E+04 SP= 0.00E+00 SK= 0.00E+00
     1820 T=  4120. E= -.27596522E+05 F= -.31353550E+05 EK= 0.37570E+04 SP= 0.00E+00 SK= 0.00E+00
     1830 T=  4144. E= -.27596504E+05 F= -.31375624E+05 EK= 0.37791E+04 SP= 0.00E+00 SK= 0.00E+00
     1840 T=  4102. E= -.27596486E+05 F= -.31337334E+05 EK= 0.37408E+04 SP= 0.00E+00 SK= 0.00E+00
     1850 T=  4072. E= -.27596421E+05 F= -.31309586E+05 EK= 0.37132E+04 SP= 0.00E+00 SK= 0.00E+00
     1860 T=  4116. E= -.27596502E+05 F= -.31349704E+05 EK= 0.37532E+04 SP= 0.00E+00 SK= 0.00E+00
     1870 T=  4103. E= -.27596424E+05 F= -.31338012E+05 EK= 0.37416E+04 SP= 0.00E+00 SK= 0.00E+00
     1880 T=  4099. E= -.27596418E+05 F= -.31334701E+05 EK= 0.37383E+04 SP= 0.00E+00 SK= 0.00E+00
     1890 T=  4087. E= -.27596487E+05 F= -.31323500E+05 EK= 0.37270E+04 SP= 0.00E+00 SK= 0.00E+00
     1900 T=  4058. E= -.27596474E+05 F= -.31296764E+05 EK= 0.37003E+04 SP= 0.00E+00 SK= 0.00E+00
     1910 T=  4080. E= -.27596503E+05 F= -.31317428E+05 EK= 0.37209E+04 SP= 0.00E+00 SK= 0.00E+00
     1920 T=  4094. E= -.27596397E+05 F= -.31329867E+05 EK= 0.37335E+04 SP= 0.00E+00 SK= 0.00E+00
     1930 T=  4124. E= -.27596420E+05 F= -.31357217E+05 EK= 0.37608E+04 SP= 0.00E+00 SK= 0.00E+00
     1940 T=  4104. E= -.27596353E+05 F= -.31338532E+05 EK= 0.37422E+04 SP= 0.00E+00 SK= 0.00E+00
     1950 T=  4108. E= -.27596390E+05 F= -.31342969E+05 EK= 0.37466E+04 SP= 0.00E+00 SK= 0.00E+00
     1960 T=  4131. E= -.27596455E+05 F= -.31363609E+05 EK= 0.37672E+04 SP= 0.00E+00 SK= 0.00E+00
     1970 T=  4100. E= -.27596365E+05 F= -.31334875E+05 EK= 0.37385E+04 SP= 0.00E+00 SK= 0.00E+00
     1980 T=  4082. E= -.27596380E+05 F= -.31318483E+05 EK= 0.37221E+04 SP= 0.00E+00 SK= 0.00E+00
     1990 T=  4045. E= -.27596331E+05 F= -.31285060E+05 EK= 0.36887E+04 SP= 0.00E+00 SK= 0.00E+00
At line 1940 of file md.f90
Fortran runtime error: Unit number is negative and unit was not already opened with OPEN(NEWUNIT=...)

Error termination. Backtrace:
At line 1940 of file md.f90
Fortran runtime error: Unit number is negative and unit was not already opened with OPEN(NEWUNIT=...)

Error termination. Backtrace:
At line 1940 of file md.f90
Fortran runtime error: Unit number is negative and unit was not already opened with OPEN(NEWUNIT=...)

Error termination. Backtrace:
At line 1940 of file md.f90
Fortran runtime error: Unit number is negative and unit was not already opened with OPEN(NEWUNIT=...)

Error termination. Backtrace:
At line 1940 of file md.f90
Fortran runtime error: Unit number is negative and unit was not already opened with OPEN(NEWUNIT=...)

Error termination. Backtrace:
     2000 T=  4047. E= -.27596319E+05 F= -.31287273E+05 EK= 0.36910E+04 SP= 0.00E+00 SK= 0.00E+00
Rc and Rl:   5.500000  7.321000

Average number of steps between two list updates:  18.69
Average number of atoms in the shell:     0.01
#0  0x7ff1d05e7d11 in ???
#1  0x7ff1d05e8859 in ???
#2  0x7ff1d05e953f in ???
#3  0x556b6ec0d0bc in ???
#4  0x556b6ec0892e in ???
#5  0x7ff1d027e082 in __libc_start_main
	at ../csu/libc-start.c:308
#6  0x556b6ec0896d in ???
#7  0xffffffffffffffff in ???
#0  0x7fa7e3973d11 in ???
#1  0x7fa7e3974859 in ???
#2  0x7fa7e397553f in ???
#3  0x561a3b6dd0bc in ???
#4  0x561a3b6d892e in ???
#5  0x7fa7e360a082 in __libc_start_main
	at ../csu/libc-start.c:308
#6  0x561a3b6d896d in ???
#7  0xffffffffffffffff in ???
#0  0x7f9440fc0d11 in ???
#1  0x7f9440fc1859 in ???
#2  0x7f9440fc253f in ???
#3  0x558a2150c0bc in ???
#4  0x558a2150792e in ???
#5  0x7f9440c57082 in __libc_start_main
	at ../csu/libc-start.c:308
#6  0x558a2150796d in ???
#7  0xffffffffffffffff in ???
