 running on    6 nodes
 distr:  one band on    1 nodes,    6 groups
 md.x 0.99
 POSCAR found :  1 types and     7056 ions
Rc and Rl:   5.500000  7.321000
 TIPO = eam     
 TIPO1 = uknown p
 Using EAM

 EAM parameters: 
 C  =   9.9634  EPS  = 0.2048  A  = 3.5678  M  = 3.127  N  =  6.366  R1 =   5.500000


 ----------------------------------------------------------------------------- 
|                                                                             |
|           W    W    AA    RRRRR   N    N  II  N    N   GGGG   !!!           |
|           W    W   A  A   R    R  NN   N  II  NN   N  G    G  !!!           |
|           W    W  A    A  R    R  N N  N  II  N N  N  G       !!!           |
|           W WW W  AAAAAA  RRRRR   N  N N  II  N  N N  G  GGG   !            |
|           WW  WW  A    A  R   R   N   NN  II  N   NN  G    G                |
|           W    W  A    A  R    R  N    N  II  N    N   GGGG   !!!           |
|                                                                             |
|      VASP found  21165 degrees of freedom                                   |
|      the temperature will equal 2*E(kin)/ (degrees of freedom)              |
|      this differs from previous releases, where T was 2*E(kin)/(3 NIONS).   |
|      The new definition is more consistent                                  |
|                                                                             |
 ----------------------------------------------------------------------------- 

 Random init:       15725       23296
 Random init:       15725       23296
 Random init:       15725       23296
 Random init:       15725       23296
 Random init:       15725       23296
 Random init:       15725       23296
 alloco spazio per displ
       10 T=  3104. E= -.29725855E+05 F= -.32556587E+05 EK= 0.28307E+04 SP= 0.00E+00 SK= 0.00E+00
       20 T=  2992. E= -.29725600E+05 F= -.32454406E+05 EK= 0.27288E+04 SP= 0.00E+00 SK= 0.00E+00
       30 T=  3019. E= -.29725736E+05 F= -.32478492E+05 EK= 0.27528E+04 SP= 0.00E+00 SK= 0.00E+00
       40 T=  3061. E= -.29725837E+05 F= -.32516994E+05 EK= 0.27912E+04 SP= 0.00E+00 SK= 0.00E+00
       50 T=  3016. E= -.29725743E+05 F= -.32476354E+05 EK= 0.27506E+04 SP= 0.00E+00 SK= 0.00E+00
       60 T=  3041. E= -.29725866E+05 F= -.32499457E+05 EK= 0.27736E+04 SP= 0.00E+00 SK= 0.00E+00
       70 T=  3013. E= -.29725795E+05 F= -.32473880E+05 EK= 0.27481E+04 SP= 0.00E+00 SK= 0.00E+00
       80 T=  2993. E= -.29725721E+05 F= -.32454901E+05 EK= 0.27292E+04 SP= 0.00E+00 SK= 0.00E+00
       90 T=  3047. E= -.29725837E+05 F= -.32504278E+05 EK= 0.27784E+04 SP= 0.00E+00 SK= 0.00E+00
      100 T=  3027. E= -.29725809E+05 F= -.32486601E+05 EK= 0.27608E+04 SP= 0.00E+00 SK= 0.00E+00
      110 T=  3022. E= -.29725774E+05 F= -.32482004E+05 EK= 0.27562E+04 SP= 0.00E+00 SK= 0.00E+00
      120 T=  3050. E= -.29725835E+05 F= -.32507484E+05 EK= 0.27816E+04 SP= 0.00E+00 SK= 0.00E+00
      130 T=  3025. E= -.29725811E+05 F= -.32484566E+05 EK= 0.27588E+04 SP= 0.00E+00 SK= 0.00E+00
      140 T=  3006. E= -.29725741E+05 F= -.32467030E+05 EK= 0.27413E+04 SP= 0.00E+00 SK= 0.00E+00
      150 T=  3037. E= -.29725808E+05 F= -.32495298E+05 EK= 0.27695E+04 SP= 0.00E+00 SK= 0.00E+00
      160 T=  3047. E= -.29725789E+05 F= -.32504384E+05 EK= 0.27786E+04 SP= 0.00E+00 SK= 0.00E+00
      170 T=  3062. E= -.29725819E+05 F= -.32517885E+05 EK= 0.27921E+04 SP= 0.00E+00 SK= 0.00E+00
      180 T=  3049. E= -.29725832E+05 F= -.32506079E+05 EK= 0.27802E+04 SP= 0.00E+00 SK= 0.00E+00
      190 T=  3043. E= -.29725821E+05 F= -.32500948E+05 EK= 0.27751E+04 SP= 0.00E+00 SK= 0.00E+00
      200 T=  3033. E= -.29725802E+05 F= -.32491877E+05 EK= 0.27661E+04 SP= 0.00E+00 SK= 0.00E+00
      210 T=  3026. E= -.29725729E+05 F= -.32485545E+05 EK= 0.27598E+04 SP= 0.00E+00 SK= 0.00E+00
      220 T=  3038. E= -.29725818E+05 F= -.32496568E+05 EK= 0.27707E+04 SP= 0.00E+00 SK= 0.00E+00
      230 T=  3014. E= -.29725720E+05 F= -.32474098E+05 EK= 0.27484E+04 SP= 0.00E+00 SK= 0.00E+00
      240 T=  3037. E= -.29725729E+05 F= -.32495561E+05 EK= 0.27698E+04 SP= 0.00E+00 SK= 0.00E+00
      250 T=  3070. E= -.29725878E+05 F= -.32525733E+05 EK= 0.27999E+04 SP= 0.00E+00 SK= 0.00E+00
      260 T=  2992. E= -.29725699E+05 F= -.32454191E+05 EK= 0.27285E+04 SP= 0.00E+00 SK= 0.00E+00
      270 T=  2980. E= -.29725773E+05 F= -.32443386E+05 EK= 0.27176E+04 SP= 0.00E+00 SK= 0.00E+00
      280 T=  3004. E= -.29725765E+05 F= -.32465214E+05 EK= 0.27394E+04 SP= 0.00E+00 SK= 0.00E+00
      290 T=  3050. E= -.29725860E+05 F= -.32507443E+05 EK= 0.27816E+04 SP= 0.00E+00 SK= 0.00E+00
      300 T=  3047. E= -.29725852E+05 F= -.32504886E+05 EK= 0.27790E+04 SP= 0.00E+00 SK= 0.00E+00
      310 T=  3031. E= -.29725872E+05 F= -.32489555E+05 EK= 0.27637E+04 SP= 0.00E+00 SK= 0.00E+00
      320 T=  3034. E= -.29725970E+05 F= -.32492618E+05 EK= 0.27666E+04 SP= 0.00E+00 SK= 0.00E+00
      330 T=  3016. E= -.29725891E+05 F= -.32475881E+05 EK= 0.27500E+04 SP= 0.00E+00 SK= 0.00E+00
      340 T=  3022. E= -.29725908E+05 F= -.32481363E+05 EK= 0.27555E+04 SP= 0.00E+00 SK= 0.00E+00
      350 T=  3027. E= -.29725908E+05 F= -.32485983E+05 EK= 0.27601E+04 SP= 0.00E+00 SK= 0.00E+00
      360 T=  3039. E= -.29725879E+05 F= -.32496904E+05 EK= 0.27710E+04 SP= 0.00E+00 SK= 0.00E+00
      370 T=  3029. E= -.29725840E+05 F= -.32487961E+05 EK= 0.27621E+04 SP= 0.00E+00 SK= 0.00E+00
      380 T=  3010. E= -.29725781E+05 F= -.32470637E+05 EK= 0.27449E+04 SP= 0.00E+00 SK= 0.00E+00
      390 T=  3037. E= -.29725843E+05 F= -.32495250E+05 EK= 0.27694E+04 SP= 0.00E+00 SK= 0.00E+00
      400 T=  3044. E= -.29725874E+05 F= -.32501840E+05 EK= 0.27760E+04 SP= 0.00E+00 SK= 0.00E+00
      410 T=  2995. E= -.29725822E+05 F= -.32457107E+05 EK= 0.27313E+04 SP= 0.00E+00 SK= 0.00E+00
      420 T=  2994. E= -.29725821E+05 F= -.32456334E+05 EK= 0.27305E+04 SP= 0.00E+00 SK= 0.00E+00
      430 T=  3051. E= -.29725967E+05 F= -.32508187E+05 EK= 0.27822E+04 SP= 0.00E+00 SK= 0.00E+00
      440 T=  3001. E= -.29725809E+05 F= -.32462578E+05 EK= 0.27368E+04 SP= 0.00E+00 SK= 0.00E+00
      450 T=  3008. E= -.29725816E+05 F= -.32469330E+05 EK= 0.27435E+04 SP= 0.00E+00 SK= 0.00E+00
      460 T=  3050. E= -.29725934E+05 F= -.32507547E+05 EK= 0.27816E+04 SP= 0.00E+00 SK= 0.00E+00
      470 T=  2996. E= -.29725807E+05 F= -.32458135E+05 EK= 0.27323E+04 SP= 0.00E+00 SK= 0.00E+00
      480 T=  3018. E= -.29725819E+05 F= -.32478297E+05 EK= 0.27525E+04 SP= 0.00E+00 SK= 0.00E+00
      490 T=  3054. E= -.29725886E+05 F= -.32510722E+05 EK= 0.27848E+04 SP= 0.00E+00 SK= 0.00E+00
      500 T=  3049. E= -.29725859E+05 F= -.32506217E+05 EK= 0.27804E+04 SP= 0.00E+00 SK= 0.00E+00
      510 T=  3039. E= -.29725802E+05 F= -.32497588E+05 EK= 0.27718E+04 SP= 0.00E+00 SK= 0.00E+00
      520 T=  3020. E= -.29725768E+05 F= -.32479776E+05 EK= 0.27540E+04 SP= 0.00E+00 SK= 0.00E+00
      530 T=  3006. E= -.29725781E+05 F= -.32466740E+05 EK= 0.27410E+04 SP= 0.00E+00 SK= 0.00E+00
      540 T=  3002. E= -.29725767E+05 F= -.32463732E+05 EK= 0.27380E+04 SP= 0.00E+00 SK= 0.00E+00
      550 T=  3040. E= -.29725856E+05 F= -.32498302E+05 EK= 0.27724E+04 SP= 0.00E+00 SK= 0.00E+00
      560 T=  3054. E= -.29725883E+05 F= -.32511102E+05 EK= 0.27852E+04 SP= 0.00E+00 SK= 0.00E+00
      570 T=  3000. E= -.29725753E+05 F= -.32461786E+05 EK= 0.27360E+04 SP= 0.00E+00 SK= 0.00E+00
      580 T=  3005. E= -.29725811E+05 F= -.32466177E+05 EK= 0.27404E+04 SP= 0.00E+00 SK= 0.00E+00
      590 T=  3045. E= -.29725892E+05 F= -.32502917E+05 EK= 0.27770E+04 SP= 0.00E+00 SK= 0.00E+00
      600 T=  3048. E= -.29725958E+05 F= -.32505501E+05 EK= 0.27795E+04 SP= 0.00E+00 SK= 0.00E+00
      610 T=  3026. E= -.29725911E+05 F= -.32485512E+05 EK= 0.27596E+04 SP= 0.00E+00 SK= 0.00E+00
      620 T=  3015. E= -.29725865E+05 F= -.32475146E+05 EK= 0.27493E+04 SP= 0.00E+00 SK= 0.00E+00
      630 T=  3050. E= -.29726032E+05 F= -.32507202E+05 EK= 0.27812E+04 SP= 0.00E+00 SK= 0.00E+00
      640 T=  3015. E= -.29725961E+05 F= -.32475709E+05 EK= 0.27497E+04 SP= 0.00E+00 SK= 0.00E+00
      650 T=  3036. E= -.29726023E+05 F= -.32494627E+05 EK= 0.27686E+04 SP= 0.00E+00 SK= 0.00E+00
      660 T=  3075. E= -.29726069E+05 F= -.32529871E+05 EK= 0.28038E+04 SP= 0.00E+00 SK= 0.00E+00
      670 T=  3041. E= -.29726033E+05 F= -.32498807E+05 EK= 0.27728E+04 SP= 0.00E+00 SK= 0.00E+00
      680 T=  3008. E= -.29726014E+05 F= -.32469166E+05 EK= 0.27432E+04 SP= 0.00E+00 SK= 0.00E+00
      690 T=  3022. E= -.29726048E+05 F= -.32481649E+05 EK= 0.27556E+04 SP= 0.00E+00 SK= 0.00E+00
      700 T=  3036. E= -.29726120E+05 F= -.32494789E+05 EK= 0.27687E+04 SP= 0.00E+00 SK= 0.00E+00
      710 T=  3002. E= -.29726036E+05 F= -.32463832E+05 EK= 0.27378E+04 SP= 0.00E+00 SK= 0.00E+00
      720 T=  3013. E= -.29726047E+05 F= -.32473782E+05 EK= 0.27477E+04 SP= 0.00E+00 SK= 0.00E+00
      730 T=  3022. E= -.29726080E+05 F= -.32482288E+05 EK= 0.27562E+04 SP= 0.00E+00 SK= 0.00E+00
      740 T=  2992. E= -.29726044E+05 F= -.32454798E+05 EK= 0.27288E+04 SP= 0.00E+00 SK= 0.00E+00
      750 T=  2993. E= -.29725947E+05 F= -.32455341E+05 EK= 0.27294E+04 SP= 0.00E+00 SK= 0.00E+00
      760 T=  3082. E= -.29726082E+05 F= -.32536217E+05 EK= 0.28101E+04 SP= 0.00E+00 SK= 0.00E+00
      770 T=  3078. E= -.29726068E+05 F= -.32533416E+05 EK= 0.28073E+04 SP= 0.00E+00 SK= 0.00E+00
      780 T=  2994. E= -.29725886E+05 F= -.32456126E+05 EK= 0.27302E+04 SP= 0.00E+00 SK= 0.00E+00
      790 T=  3058. E= -.29726083E+05 F= -.32514777E+05 EK= 0.27887E+04 SP= 0.00E+00 SK= 0.00E+00
      800 T=  3075. E= -.29726074E+05 F= -.32530662E+05 EK= 0.28046E+04 SP= 0.00E+00 SK= 0.00E+00
      810 T=  3025. E= -.29725996E+05 F= -.32484152E+05 EK= 0.27582E+04 SP= 0.00E+00 SK= 0.00E+00
      820 T=  3027. E= -.29726062E+05 F= -.32486855E+05 EK= 0.27608E+04 SP= 0.00E+00 SK= 0.00E+00
      830 T=  3020. E= -.29726078E+05 F= -.32480570E+05 EK= 0.27545E+04 SP= 0.00E+00 SK= 0.00E+00
      840 T=  3018. E= -.29726068E+05 F= -.32478137E+05 EK= 0.27521E+04 SP= 0.00E+00 SK= 0.00E+00
      850 T=  3003. E= -.29726012E+05 F= -.32464976E+05 EK= 0.27390E+04 SP= 0.00E+00 SK= 0.00E+00
      860 T=  2984. E= -.29725994E+05 F= -.32447576E+05 EK= 0.27216E+04 SP= 0.00E+00 SK= 0.00E+00
      870 T=  3038. E= -.29726120E+05 F= -.32496567E+05 EK= 0.27704E+04 SP= 0.00E+00 SK= 0.00E+00
      880 T=  3040. E= -.29726036E+05 F= -.32498001E+05 EK= 0.27720E+04 SP= 0.00E+00 SK= 0.00E+00
      890 T=  3021. E= -.29725982E+05 F= -.32481311E+05 EK= 0.27553E+04 SP= 0.00E+00 SK= 0.00E+00
      900 T=  3030. E= -.29725959E+05 F= -.32488693E+05 EK= 0.27627E+04 SP= 0.00E+00 SK= 0.00E+00
      910 T=  3045. E= -.29726034E+05 F= -.32503273E+05 EK= 0.27772E+04 SP= 0.00E+00 SK= 0.00E+00
      920 T=  3028. E= -.29726022E+05 F= -.32487525E+05 EK= 0.27615E+04 SP= 0.00E+00 SK= 0.00E+00
      930 T=  2999. E= -.29726005E+05 F= -.32460677E+05 EK= 0.27347E+04 SP= 0.00E+00 SK= 0.00E+00
      940 T=  2996. E= -.29726014E+05 F= -.32457834E+05 EK= 0.27318E+04 SP= 0.00E+00 SK= 0.00E+00
      950 T=  3051. E= -.29726111E+05 F= -.32508801E+05 EK= 0.27827E+04 SP= 0.00E+00 SK= 0.00E+00
      960 T=  3064. E= -.29726077E+05 F= -.32519826E+05 EK= 0.27937E+04 SP= 0.00E+00 SK= 0.00E+00
      970 T=  3038. E= -.29726015E+05 F= -.32496903E+05 EK= 0.27709E+04 SP= 0.00E+00 SK= 0.00E+00
      980 T=  3049. E= -.29726055E+05 F= -.32506711E+05 EK= 0.27807E+04 SP= 0.00E+00 SK= 0.00E+00
      990 T=  3026. E= -.29725998E+05 F= -.32485574E+05 EK= 0.27596E+04 SP= 0.00E+00 SK= 0.00E+00
     1000 T=  2999. E= -.29725919E+05 F= -.32460779E+05 EK= 0.27349E+04 SP= 0.00E+00 SK= 0.00E+00
     1010 T=  3001. E= -.29725978E+05 F= -.32462497E+05 EK= 0.27365E+04 SP= 0.00E+00 SK= 0.00E+00
     1020 T=  3008. E= -.29725981E+05 F= -.32469090E+05 EK= 0.27431E+04 SP= 0.00E+00 SK= 0.00E+00
     1030 T=  3040. E= -.29726083E+05 F= -.32498108E+05 EK= 0.27720E+04 SP= 0.00E+00 SK= 0.00E+00
     1040 T=  3048. E= -.29726067E+05 F= -.32505617E+05 EK= 0.27795E+04 SP= 0.00E+00 SK= 0.00E+00
     1050 T=  3057. E= -.29726144E+05 F= -.32513911E+05 EK= 0.27878E+04 SP= 0.00E+00 SK= 0.00E+00
     1060 T=  3017. E= -.29726073E+05 F= -.32477534E+05 EK= 0.27515E+04 SP= 0.00E+00 SK= 0.00E+00
     1070 T=  3001. E= -.29726109E+05 F= -.32463239E+05 EK= 0.27371E+04 SP= 0.00E+00 SK= 0.00E+00
     1080 T=  3007. E= -.29726098E+05 F= -.32468589E+05 EK= 0.27425E+04 SP= 0.00E+00 SK= 0.00E+00
     1090 T=  3027. E= -.29726056E+05 F= -.32486035E+05 EK= 0.27600E+04 SP= 0.00E+00 SK= 0.00E+00
     1100 T=  3063. E= -.29726116E+05 F= -.32519723E+05 EK= 0.27936E+04 SP= 0.00E+00 SK= 0.00E+00
     1110 T=  3035. E= -.29726039E+05 F= -.32494144E+05 EK= 0.27681E+04 SP= 0.00E+00 SK= 0.00E+00
     1120 T=  3018. E= -.29726018E+05 F= -.32478244E+05 EK= 0.27522E+04 SP= 0.00E+00 SK= 0.00E+00
     1130 T=  3021. E= -.29726104E+05 F= -.32480985E+05 EK= 0.27549E+04 SP= 0.00E+00 SK= 0.00E+00
     1140 T=  3008. E= -.29726033E+05 F= -.32469229E+05 EK= 0.27432E+04 SP= 0.00E+00 SK= 0.00E+00
     1150 T=  3020. E= -.29726053E+05 F= -.32480235E+05 EK= 0.27542E+04 SP= 0.00E+00 SK= 0.00E+00
     1160 T=  3055. E= -.29726061E+05 F= -.32511779E+05 EK= 0.27857E+04 SP= 0.00E+00 SK= 0.00E+00
     1170 T=  3046. E= -.29726015E+05 F= -.32503739E+05 EK= 0.27777E+04 SP= 0.00E+00 SK= 0.00E+00
     1180 T=  3011. E= -.29725934E+05 F= -.32471764E+05 EK= 0.27458E+04 SP= 0.00E+00 SK= 0.00E+00
     1190 T=  3002. E= -.29726055E+05 F= -.32463267E+05 EK= 0.27372E+04 SP= 0.00E+00 SK= 0.00E+00
     1200 T=  3009. E= -.29726067E+05 F= -.32470063E+05 EK= 0.27440E+04 SP= 0.00E+00 SK= 0.00E+00
     1210 T=  3050. E= -.29726127E+05 F= -.32507420E+05 EK= 0.27813E+04 SP= 0.00E+00 SK= 0.00E+00
     1220 T=  3072. E= -.29726096E+05 F= -.32527307E+05 EK= 0.28012E+04 SP= 0.00E+00 SK= 0.00E+00
     1230 T=  3045. E= -.29726063E+05 F= -.32502819E+05 EK= 0.27768E+04 SP= 0.00E+00 SK= 0.00E+00
     1240 T=  3029. E= -.29726027E+05 F= -.32488096E+05 EK= 0.27621E+04 SP= 0.00E+00 SK= 0.00E+00
     1250 T=  3056. E= -.29726135E+05 F= -.32512798E+05 EK= 0.27867E+04 SP= 0.00E+00 SK= 0.00E+00
     1260 T=  3017. E= -.29726061E+05 F= -.32477228E+05 EK= 0.27512E+04 SP= 0.00E+00 SK= 0.00E+00
     1270 T=  3017. E= -.29726099E+05 F= -.32477495E+05 EK= 0.27514E+04 SP= 0.00E+00 SK= 0.00E+00
     1280 T=  3015. E= -.29726173E+05 F= -.32475406E+05 EK= 0.27492E+04 SP= 0.00E+00 SK= 0.00E+00
     1290 T=  2977. E= -.29726039E+05 F= -.32440516E+05 EK= 0.27145E+04 SP= 0.00E+00 SK= 0.00E+00
     1300 T=  3023. E= -.29726109E+05 F= -.32483255E+05 EK= 0.27571E+04 SP= 0.00E+00 SK= 0.00E+00
     1310 T=  3055. E= -.29726095E+05 F= -.32512267E+05 EK= 0.27862E+04 SP= 0.00E+00 SK= 0.00E+00
     1320 T=  3050. E= -.29726103E+05 F= -.32507913E+05 EK= 0.27818E+04 SP= 0.00E+00 SK= 0.00E+00
     1330 T=  3039. E= -.29726047E+05 F= -.32497630E+05 EK= 0.27716E+04 SP= 0.00E+00 SK= 0.00E+00
     1340 T=  3043. E= -.29726062E+05 F= -.32500905E+05 EK= 0.27748E+04 SP= 0.00E+00 SK= 0.00E+00
     1350 T=  3031. E= -.29726012E+05 F= -.32490393E+05 EK= 0.27644E+04 SP= 0.00E+00 SK= 0.00E+00
     1360 T=  3041. E= -.29726017E+05 F= -.32498910E+05 EK= 0.27729E+04 SP= 0.00E+00 SK= 0.00E+00
     1370 T=  3041. E= -.29725944E+05 F= -.32499427E+05 EK= 0.27735E+04 SP= 0.00E+00 SK= 0.00E+00
     1380 T=  3022. E= -.29726015E+05 F= -.32482154E+05 EK= 0.27561E+04 SP= 0.00E+00 SK= 0.00E+00
     1390 T=  3005. E= -.29725913E+05 F= -.32466448E+05 EK= 0.27405E+04 SP= 0.00E+00 SK= 0.00E+00
     1400 T=  3038. E= -.29726056E+05 F= -.32496482E+05 EK= 0.27704E+04 SP= 0.00E+00 SK= 0.00E+00
     1410 T=  3007. E= -.29725945E+05 F= -.32467779E+05 EK= 0.27418E+04 SP= 0.00E+00 SK= 0.00E+00
     1420 T=  3072. E= -.29726067E+05 F= -.32527965E+05 EK= 0.28019E+04 SP= 0.00E+00 SK= 0.00E+00
     1430 T=  3063. E= -.29726043E+05 F= -.32519074E+05 EK= 0.27930E+04 SP= 0.00E+00 SK= 0.00E+00
     1440 T=  3013. E= -.29725965E+05 F= -.32473185E+05 EK= 0.27472E+04 SP= 0.00E+00 SK= 0.00E+00
     1450 T=  3030. E= -.29726074E+05 F= -.32489689E+05 EK= 0.27636E+04 SP= 0.00E+00 SK= 0.00E+00
     1460 T=  3013. E= -.29725957E+05 F= -.32473447E+05 EK= 0.27475E+04 SP= 0.00E+00 SK= 0.00E+00
     1470 T=  3031. E= -.29726066E+05 F= -.32490418E+05 EK= 0.27644E+04 SP= 0.00E+00 SK= 0.00E+00
     1480 T=  3026. E= -.29726006E+05 F= -.32485720E+05 EK= 0.27597E+04 SP= 0.00E+00 SK= 0.00E+00
     1490 T=  3049. E= -.29726013E+05 F= -.32506664E+05 EK= 0.27807E+04 SP= 0.00E+00 SK= 0.00E+00
     1500 T=  3047. E= -.29726105E+05 F= -.32504897E+05 EK= 0.27788E+04 SP= 0.00E+00 SK= 0.00E+00
     1510 T=  3002. E= -.29725931E+05 F= -.32463485E+05 EK= 0.27376E+04 SP= 0.00E+00 SK= 0.00E+00
     1520 T=  3059. E= -.29725998E+05 F= -.32515883E+05 EK= 0.27899E+04 SP= 0.00E+00 SK= 0.00E+00
     1530 T=  3059. E= -.29725975E+05 F= -.32515440E+05 EK= 0.27895E+04 SP= 0.00E+00 SK= 0.00E+00
     1540 T=  2980. E= -.29725838E+05 F= -.32443086E+05 EK= 0.27172E+04 SP= 0.00E+00 SK= 0.00E+00
     1550 T=  3007. E= -.29725970E+05 F= -.32468192E+05 EK= 0.27422E+04 SP= 0.00E+00 SK= 0.00E+00
     1560 T=  3036. E= -.29725994E+05 F= -.32494184E+05 EK= 0.27682E+04 SP= 0.00E+00 SK= 0.00E+00
     1570 T=  3030. E= -.29725895E+05 F= -.32489318E+05 EK= 0.27634E+04 SP= 0.00E+00 SK= 0.00E+00
     1580 T=  3034. E= -.29725961E+05 F= -.32492413E+05 EK= 0.27665E+04 SP= 0.00E+00 SK= 0.00E+00
     1590 T=  3010. E= -.29725859E+05 F= -.32471127E+05 EK= 0.27453E+04 SP= 0.00E+00 SK= 0.00E+00
     1600 T=  3040. E= -.29725895E+05 F= -.32498367E+05 EK= 0.27725E+04 SP= 0.00E+00 SK= 0.00E+00
     1610 T=  3044. E= -.29725882E+05 F= -.32502125E+05 EK= 0.27762E+04 SP= 0.00E+00 SK= 0.00E+00
     1620 T=  3045. E= -.29725945E+05 F= -.32502832E+05 EK= 0.27769E+04 SP= 0.00E+00 SK= 0.00E+00
     1630 T=  3010. E= -.29725862E+05 F= -.32470893E+05 EK= 0.27450E+04 SP= 0.00E+00 SK= 0.00E+00
     1640 T=  3035. E= -.29725931E+05 F= -.32493630E+05 EK= 0.27677E+04 SP= 0.00E+00 SK= 0.00E+00
     1650 T=  3041. E= -.29726022E+05 F= -.32499651E+05 EK= 0.27736E+04 SP= 0.00E+00 SK= 0.00E+00
     1660 T=  2975. E= -.29725901E+05 F= -.32439083E+05 EK= 0.27132E+04 SP= 0.00E+00 SK= 0.00E+00
     1670 T=  3002. E= -.29725990E+05 F= -.32463211E+05 EK= 0.27372E+04 SP= 0.00E+00 SK= 0.00E+00
     1680 T=  3042. E= -.29726073E+05 F= -.32500365E+05 EK= 0.27743E+04 SP= 0.00E+00 SK= 0.00E+00
     1690 T=  3048. E= -.29726041E+05 F= -.32506015E+05 EK= 0.27800E+04 SP= 0.00E+00 SK= 0.00E+00
     1700 T=  3033. E= -.29726073E+05 F= -.32492133E+05 EK= 0.27661E+04 SP= 0.00E+00 SK= 0.00E+00
     1710 T=  3027. E= -.29726000E+05 F= -.32486006E+05 EK= 0.27600E+04 SP= 0.00E+00 SK= 0.00E+00
     1720 T=  3057. E= -.29726114E+05 F= -.32513855E+05 EK= 0.27877E+04 SP= 0.00E+00 SK= 0.00E+00
     1730 T=  3034. E= -.29726015E+05 F= -.32493044E+05 EK= 0.27670E+04 SP= 0.00E+00 SK= 0.00E+00
     1740 T=  3067. E= -.29726073E+05 F= -.32523108E+05 EK= 0.27970E+04 SP= 0.00E+00 SK= 0.00E+00
     1750 T=  3070. E= -.29726139E+05 F= -.32526129E+05 EK= 0.28000E+04 SP= 0.00E+00 SK= 0.00E+00
     1760 T=  3022. E= -.29726108E+05 F= -.32481820E+05 EK= 0.27557E+04 SP= 0.00E+00 SK= 0.00E+00
     1770 T=  2988. E= -.29726019E+05 F= -.32450910E+05 EK= 0.27249E+04 SP= 0.00E+00 SK= 0.00E+00
     1780 T=  3029. E= -.29726052E+05 F= -.32488069E+05 EK= 0.27620E+04 SP= 0.00E+00 SK= 0.00E+00
     1790 T=  3040. E= -.29726077E+05 F= -.32498728E+05 EK= 0.27727E+04 SP= 0.00E+00 SK= 0.00E+00
     1800 T=  3009. E= -.29726019E+05 F= -.32470254E+05 EK= 0.27442E+04 SP= 0.00E+00 SK= 0.00E+00
     1810 T=  3007. E= -.29726094E+05 F= -.32468696E+05 EK= 0.27426E+04 SP= 0.00E+00 SK= 0.00E+00
     1820 T=  3006. E= -.29726070E+05 F= -.32467214E+05 EK= 0.27411E+04 SP= 0.00E+00 SK= 0.00E+00
     1830 T=  3045. E= -.29726146E+05 F= -.32502754E+05 EK= 0.27766E+04 SP= 0.00E+00 SK= 0.00E+00
     1840 T=  3050. E= -.29726156E+05 F= -.32507852E+05 EK= 0.27817E+04 SP= 0.00E+00 SK= 0.00E+00
     1850 T=  3046. E= -.29726105E+05 F= -.32504238E+05 EK= 0.27781E+04 SP= 0.00E+00 SK= 0.00E+00
     1860 T=  3049. E= -.29726164E+05 F= -.32507092E+05 EK= 0.27809E+04 SP= 0.00E+00 SK= 0.00E+00
     1870 T=  2987. E= -.29726021E+05 F= -.32450197E+05 EK= 0.27242E+04 SP= 0.00E+00 SK= 0.00E+00
     1880 T=  2995. E= -.29726053E+05 F= -.32457017E+05 EK= 0.27310E+04 SP= 0.00E+00 SK= 0.00E+00
     1890 T=  3050. E= -.29726123E+05 F= -.32507183E+05 EK= 0.27811E+04 SP= 0.00E+00 SK= 0.00E+00
     1900 T=  3037. E= -.29726031E+05 F= -.32495983E+05 EK= 0.27700E+04 SP= 0.00E+00 SK= 0.00E+00
     1910 T=  3013. E= -.29726000E+05 F= -.32473865E+05 EK= 0.27479E+04 SP= 0.00E+00 SK= 0.00E+00
     1920 T=  3056. E= -.29726085E+05 F= -.32512960E+05 EK= 0.27869E+04 SP= 0.00E+00 SK= 0.00E+00
     1930 T=  3064. E= -.29726067E+05 F= -.32520210E+05 EK= 0.27941E+04 SP= 0.00E+00 SK= 0.00E+00
     1940 T=  3013. E= -.29726037E+05 F= -.32473472E+05 EK= 0.27474E+04 SP= 0.00E+00 SK= 0.00E+00
     1950 T=  3011. E= -.29726122E+05 F= -.32471579E+05 EK= 0.27455E+04 SP= 0.00E+00 SK= 0.00E+00
     1960 T=  3036. E= -.29726081E+05 F= -.32495060E+05 EK= 0.27690E+04 SP= 0.00E+00 SK= 0.00E+00
     1970 T=  3070. E= -.29726140E+05 F= -.32525847E+05 EK= 0.27997E+04 SP= 0.00E+00 SK= 0.00E+00
     1980 T=  3058. E= -.29726109E+05 F= -.32514816E+05 EK= 0.27887E+04 SP= 0.00E+00 SK= 0.00E+00
     1990 T=  3032. E= -.29726030E+05 F= -.32490993E+05 EK= 0.27650E+04 SP= 0.00E+00 SK= 0.00E+00
At line 1940 of file md.f90
Fortran runtime error: Unit number is negative and unit was not already opened with OPEN(NEWUNIT=...)

Error termination. Backtrace:
At line 1940 of file md.f90
Fortran runtime error: Unit number is negative and unit was not already opened with OPEN(NEWUNIT=...)

Error termination. Backtrace:
At line 1940 of file md.f90
Fortran runtime error: Unit number is negative and unit was not already opened with OPEN(NEWUNIT=...)

Error termination. Backtrace:
At line 1940 of file md.f90
Fortran runtime error: Unit number is negative and unit was not already opened with OPEN(NEWUNIT=...)

Error termination. Backtrace:
At line 1940 of file md.f90
Fortran runtime error: Unit number is negative and unit was not already opened with OPEN(NEWUNIT=...)

Error termination. Backtrace:
     2000 T=  3038. E= -.29726068E+05 F= -.32496603E+05 EK= 0.27705E+04 SP= 0.00E+00 SK= 0.00E+00
Rc and Rl:   5.500000  7.321000

Average number of steps between two list updates:  22.22
Average number of atoms in the shell:     0.01
#0  0x7f178e952d11 in ???
#1  0x7f178e953859 in ???
#2  0x7f178e95453f in ???
#3  0x5647cc5d30bc in ???
#4  0x5647cc5ce92e in ???
#5  0x7f178e5e9082 in __libc_start_main
	at ../csu/libc-start.c:308
#6  0x5647cc5ce96d in ???
#7  0xffffffffffffffff in ???
#0  0x7f3301757d11 in ???
#1  0x7f3301758859 in ???
#2  0x7f330175953f in ???
#3  0x563b5c4870bc in ???
#4  0x563b5c48292e in ???
#5  0x7f33013ee082 in __libc_start_main
	at ../csu/libc-start.c:308
#6  0x563b5c48296d in ???
#7  0xffffffffffffffff in ???
#0  0x7fa34ea5bd11 in ???
#1  0x7fa34ea5c859 in ???
#2  0x7fa34ea5d53f in ???
#3  0x55c487e640bc in ???
#4  0x55c487e5f92e in ???
#5  0x7fa34e6f2082 in __libc_start_main
	at ../csu/libc-start.c:308
#6  0x55c487e5f96d in ???
#7  0xffffffffffffffff in ???
#0  0x7f2489712d11 in ???
#1  0x7f2489713859 in ???
#2  0x7f248971453f in ???
#3  0x562890ba50bc in ???
#4  0x562890ba092e in ???
#5  0x7f24893a9082 in __libc_start_main
	at ../csu/libc-start.c:308
#6  0x562890ba096d in ???
#7  0xffffffffffffffff in ???
