 running on    6 nodes
 distr:  one band on    1 nodes,    6 groups
 md.x 0.99
 POSCAR found :  1 types and     7056 ions
Rc and Rl:   5.500000  7.321000
 TIPO = eam     
 TIPO1 = uknown p
 Using EAM

 EAM parameters: 
 C  =   9.9634  EPS  = 0.2048  A  = 3.5678  M  = 3.127  N  =  6.366  R1 =   5.500000


 ----------------------------------------------------------------------------- 
|                                                                             |
|           W    W    AA    RRRRR   N    N  II  N    N   GGGG   !!!           |
|           W    W   A  A   R    R  NN   N  II  NN   N  G    G  !!!           |
|           W    W  A    A  R    R  N N  N  II  N N  N  G       !!!           |
|           W WW W  AAAAAA  RRRRR   N  N N  II  N  N N  G  GGG   !            |
|           WW  WW  A    A  R   R   N   NN  II  N   NN  G    G                |
|           W    W  A    A  R    R  N    N  II  N    N   GGGG   !!!           |
|                                                                             |
|      VASP found  21165 degrees of freedom                                   |
|      the temperature will equal 2*E(kin)/ (degrees of freedom)              |
|      this differs from previous releases, where T was 2*E(kin)/(3 NIONS).   |
|      The new definition is more consistent                                  |
|                                                                             |
 ----------------------------------------------------------------------------- 

 Random init:       28143        5714
 Random init:       28143        5714
 Random init:       28143        5714
 Random init:       28143        5714
 Random init:       28143        5714
 alloco spazio per displ
 Random init:       28143        5714
       10 T=  2508. E= -.30834257E+05 F= -.33120983E+05 EK= 0.22867E+04 SP= 0.00E+00 SK= 0.00E+00
       20 T=  2419. E= -.30834082E+05 F= -.33040027E+05 EK= 0.22059E+04 SP= 0.00E+00 SK= 0.00E+00
       30 T=  2428. E= -.30834164E+05 F= -.33048683E+05 EK= 0.22145E+04 SP= 0.00E+00 SK= 0.00E+00
       40 T=  2454. E= -.30834202E+05 F= -.33071798E+05 EK= 0.22376E+04 SP= 0.00E+00 SK= 0.00E+00
       50 T=  2400. E= -.30834054E+05 F= -.33022318E+05 EK= 0.21883E+04 SP= 0.00E+00 SK= 0.00E+00
       60 T=  2409. E= -.30834082E+05 F= -.33030814E+05 EK= 0.21967E+04 SP= 0.00E+00 SK= 0.00E+00
       70 T=  2452. E= -.30834134E+05 F= -.33070201E+05 EK= 0.22361E+04 SP= 0.00E+00 SK= 0.00E+00
       80 T=  2456. E= -.30834124E+05 F= -.33073676E+05 EK= 0.22396E+04 SP= 0.00E+00 SK= 0.00E+00
       90 T=  2427. E= -.30834134E+05 F= -.33047290E+05 EK= 0.22132E+04 SP= 0.00E+00 SK= 0.00E+00
      100 T=  2419. E= -.30834093E+05 F= -.33040458E+05 EK= 0.22064E+04 SP= 0.00E+00 SK= 0.00E+00
      110 T=  2440. E= -.30834134E+05 F= -.33059639E+05 EK= 0.22255E+04 SP= 0.00E+00 SK= 0.00E+00
      120 T=  2424. E= -.30834104E+05 F= -.33044965E+05 EK= 0.22109E+04 SP= 0.00E+00 SK= 0.00E+00
      130 T=  2431. E= -.30834107E+05 F= -.33051392E+05 EK= 0.22173E+04 SP= 0.00E+00 SK= 0.00E+00
      140 T=  2444. E= -.30834146E+05 F= -.33062645E+05 EK= 0.22285E+04 SP= 0.00E+00 SK= 0.00E+00
      150 T=  2425. E= -.30834105E+05 F= -.33045239E+05 EK= 0.22111E+04 SP= 0.00E+00 SK= 0.00E+00
      160 T=  2441. E= -.30834100E+05 F= -.33059751E+05 EK= 0.22257E+04 SP= 0.00E+00 SK= 0.00E+00
      170 T=  2471. E= -.30834200E+05 F= -.33087719E+05 EK= 0.22535E+04 SP= 0.00E+00 SK= 0.00E+00
      180 T=  2418. E= -.30834078E+05 F= -.33039487E+05 EK= 0.22054E+04 SP= 0.00E+00 SK= 0.00E+00
      190 T=  2403. E= -.30834105E+05 F= -.33025228E+05 EK= 0.21911E+04 SP= 0.00E+00 SK= 0.00E+00
      200 T=  2445. E= -.30834175E+05 F= -.33063838E+05 EK= 0.22297E+04 SP= 0.00E+00 SK= 0.00E+00
      210 T=  2446. E= -.30834149E+05 F= -.33064506E+05 EK= 0.22304E+04 SP= 0.00E+00 SK= 0.00E+00
      220 T=  2421. E= -.30834111E+05 F= -.33041798E+05 EK= 0.22077E+04 SP= 0.00E+00 SK= 0.00E+00
      230 T=  2425. E= -.30834146E+05 F= -.33045402E+05 EK= 0.22113E+04 SP= 0.00E+00 SK= 0.00E+00
      240 T=  2420. E= -.30834169E+05 F= -.33040684E+05 EK= 0.22065E+04 SP= 0.00E+00 SK= 0.00E+00
      250 T=  2406. E= -.30834144E+05 F= -.33028655E+05 EK= 0.21945E+04 SP= 0.00E+00 SK= 0.00E+00
      260 T=  2418. E= -.30834167E+05 F= -.33038992E+05 EK= 0.22048E+04 SP= 0.00E+00 SK= 0.00E+00
      270 T=  2439. E= -.30834195E+05 F= -.33058501E+05 EK= 0.22243E+04 SP= 0.00E+00 SK= 0.00E+00
      280 T=  2442. E= -.30834128E+05 F= -.33061049E+05 EK= 0.22269E+04 SP= 0.00E+00 SK= 0.00E+00
      290 T=  2451. E= -.30834197E+05 F= -.33069147E+05 EK= 0.22349E+04 SP= 0.00E+00 SK= 0.00E+00
      300 T=  2425. E= -.30834153E+05 F= -.33045764E+05 EK= 0.22116E+04 SP= 0.00E+00 SK= 0.00E+00
      310 T=  2426. E= -.30834186E+05 F= -.33046486E+05 EK= 0.22123E+04 SP= 0.00E+00 SK= 0.00E+00
      320 T=  2434. E= -.30834192E+05 F= -.33054117E+05 EK= 0.22199E+04 SP= 0.00E+00 SK= 0.00E+00
      330 T=  2419. E= -.30834135E+05 F= -.33040222E+05 EK= 0.22061E+04 SP= 0.00E+00 SK= 0.00E+00
      340 T=  2441. E= -.30834170E+05 F= -.33060653E+05 EK= 0.22265E+04 SP= 0.00E+00 SK= 0.00E+00
      350 T=  2448. E= -.30834114E+05 F= -.33066794E+05 EK= 0.22327E+04 SP= 0.00E+00 SK= 0.00E+00
      360 T=  2435. E= -.30834099E+05 F= -.33054935E+05 EK= 0.22208E+04 SP= 0.00E+00 SK= 0.00E+00
      370 T=  2445. E= -.30834177E+05 F= -.33064274E+05 EK= 0.22301E+04 SP= 0.00E+00 SK= 0.00E+00
      380 T=  2437. E= -.30834099E+05 F= -.33056692E+05 EK= 0.22226E+04 SP= 0.00E+00 SK= 0.00E+00
      390 T=  2435. E= -.30834143E+05 F= -.33054426E+05 EK= 0.22203E+04 SP= 0.00E+00 SK= 0.00E+00
      400 T=  2423. E= -.30834112E+05 F= -.33043588E+05 EK= 0.22095E+04 SP= 0.00E+00 SK= 0.00E+00
      410 T=  2440. E= -.30834175E+05 F= -.33059304E+05 EK= 0.22251E+04 SP= 0.00E+00 SK= 0.00E+00
      420 T=  2435. E= -.30834201E+05 F= -.33054555E+05 EK= 0.22204E+04 SP= 0.00E+00 SK= 0.00E+00
      430 T=  2416. E= -.30834137E+05 F= -.33037443E+05 EK= 0.22033E+04 SP= 0.00E+00 SK= 0.00E+00
      440 T=  2432. E= -.30834184E+05 F= -.33051926E+05 EK= 0.22177E+04 SP= 0.00E+00 SK= 0.00E+00
      450 T=  2426. E= -.30834125E+05 F= -.33046115E+05 EK= 0.22120E+04 SP= 0.00E+00 SK= 0.00E+00
      460 T=  2449. E= -.30834208E+05 F= -.33067113E+05 EK= 0.22329E+04 SP= 0.00E+00 SK= 0.00E+00
      470 T=  2447. E= -.30834208E+05 F= -.33065569E+05 EK= 0.22314E+04 SP= 0.00E+00 SK= 0.00E+00
      480 T=  2437. E= -.30834197E+05 F= -.33056153E+05 EK= 0.22220E+04 SP= 0.00E+00 SK= 0.00E+00
      490 T=  2441. E= -.30834227E+05 F= -.33060536E+05 EK= 0.22263E+04 SP= 0.00E+00 SK= 0.00E+00
      500 T=  2426. E= -.30834153E+05 F= -.33046167E+05 EK= 0.22120E+04 SP= 0.00E+00 SK= 0.00E+00
      510 T=  2431. E= -.30834156E+05 F= -.33051497E+05 EK= 0.22173E+04 SP= 0.00E+00 SK= 0.00E+00
      520 T=  2449. E= -.30834209E+05 F= -.33067125E+05 EK= 0.22329E+04 SP= 0.00E+00 SK= 0.00E+00
      530 T=  2441. E= -.30834136E+05 F= -.33060533E+05 EK= 0.22264E+04 SP= 0.00E+00 SK= 0.00E+00
      540 T=  2446. E= -.30834210E+05 F= -.33065079E+05 EK= 0.22309E+04 SP= 0.00E+00 SK= 0.00E+00
      550 T=  2404. E= -.30834143E+05 F= -.33026722E+05 EK= 0.21926E+04 SP= 0.00E+00 SK= 0.00E+00
      560 T=  2393. E= -.30834080E+05 F= -.33016668E+05 EK= 0.21826E+04 SP= 0.00E+00 SK= 0.00E+00
      570 T=  2442. E= -.30834163E+05 F= -.33061522E+05 EK= 0.22274E+04 SP= 0.00E+00 SK= 0.00E+00
      580 T=  2447. E= -.30834122E+05 F= -.33065756E+05 EK= 0.22316E+04 SP= 0.00E+00 SK= 0.00E+00
      590 T=  2460. E= -.30834146E+05 F= -.33077753E+05 EK= 0.22436E+04 SP= 0.00E+00 SK= 0.00E+00
      600 T=  2432. E= -.30834118E+05 F= -.33051569E+05 EK= 0.22175E+04 SP= 0.00E+00 SK= 0.00E+00
      610 T=  2423. E= -.30834141E+05 F= -.33043323E+05 EK= 0.22092E+04 SP= 0.00E+00 SK= 0.00E+00
      620 T=  2437. E= -.30834171E+05 F= -.33056829E+05 EK= 0.22227E+04 SP= 0.00E+00 SK= 0.00E+00
      630 T=  2435. E= -.30834166E+05 F= -.33054824E+05 EK= 0.22207E+04 SP= 0.00E+00 SK= 0.00E+00
      640 T=  2441. E= -.30834211E+05 F= -.33060553E+05 EK= 0.22263E+04 SP= 0.00E+00 SK= 0.00E+00
      650 T=  2433. E= -.30834159E+05 F= -.33053258E+05 EK= 0.22191E+04 SP= 0.00E+00 SK= 0.00E+00
      660 T=  2437. E= -.30834139E+05 F= -.33056361E+05 EK= 0.22222E+04 SP= 0.00E+00 SK= 0.00E+00
      670 T=  2449. E= -.30834184E+05 F= -.33067903E+05 EK= 0.22337E+04 SP= 0.00E+00 SK= 0.00E+00
      680 T=  2416. E= -.30834083E+05 F= -.33037359E+05 EK= 0.22033E+04 SP= 0.00E+00 SK= 0.00E+00
      690 T=  2435. E= -.30834097E+05 F= -.33054478E+05 EK= 0.22204E+04 SP= 0.00E+00 SK= 0.00E+00
      700 T=  2453. E= -.30834097E+05 F= -.33071076E+05 EK= 0.22370E+04 SP= 0.00E+00 SK= 0.00E+00
      710 T=  2436. E= -.30834097E+05 F= -.33055702E+05 EK= 0.22216E+04 SP= 0.00E+00 SK= 0.00E+00
      720 T=  2431. E= -.30834093E+05 F= -.33050915E+05 EK= 0.22168E+04 SP= 0.00E+00 SK= 0.00E+00
      730 T=  2416. E= -.30834069E+05 F= -.33037634E+05 EK= 0.22036E+04 SP= 0.00E+00 SK= 0.00E+00
      740 T=  2406. E= -.30833972E+05 F= -.33028059E+05 EK= 0.21941E+04 SP= 0.00E+00 SK= 0.00E+00
      750 T=  2447. E= -.30834065E+05 F= -.33065428E+05 EK= 0.22314E+04 SP= 0.00E+00 SK= 0.00E+00
      760 T=  2447. E= -.30834004E+05 F= -.33065175E+05 EK= 0.22312E+04 SP= 0.00E+00 SK= 0.00E+00
      770 T=  2434. E= -.30834015E+05 F= -.33053269E+05 EK= 0.22193E+04 SP= 0.00E+00 SK= 0.00E+00
      780 T=  2432. E= -.30834031E+05 F= -.33051947E+05 EK= 0.22179E+04 SP= 0.00E+00 SK= 0.00E+00
      790 T=  2432. E= -.30834012E+05 F= -.33052012E+05 EK= 0.22180E+04 SP= 0.00E+00 SK= 0.00E+00
      800 T=  2430. E= -.30834024E+05 F= -.33050290E+05 EK= 0.22163E+04 SP= 0.00E+00 SK= 0.00E+00
      810 T=  2418. E= -.30833995E+05 F= -.33038625E+05 EK= 0.22046E+04 SP= 0.00E+00 SK= 0.00E+00
      820 T=  2408. E= -.30833940E+05 F= -.33029494E+05 EK= 0.21956E+04 SP= 0.00E+00 SK= 0.00E+00
      830 T=  2433. E= -.30833973E+05 F= -.33052829E+05 EK= 0.22189E+04 SP= 0.00E+00 SK= 0.00E+00
      840 T=  2436. E= -.30833978E+05 F= -.33055103E+05 EK= 0.22211E+04 SP= 0.00E+00 SK= 0.00E+00
      850 T=  2430. E= -.30833919E+05 F= -.33050065E+05 EK= 0.22161E+04 SP= 0.00E+00 SK= 0.00E+00
      860 T=  2464. E= -.30834016E+05 F= -.33081209E+05 EK= 0.22472E+04 SP= 0.00E+00 SK= 0.00E+00
      870 T=  2448. E= -.30834058E+05 F= -.33066322E+05 EK= 0.22323E+04 SP= 0.00E+00 SK= 0.00E+00
      880 T=  2394. E= -.30833976E+05 F= -.33017050E+05 EK= 0.21831E+04 SP= 0.00E+00 SK= 0.00E+00
      890 T=  2411. E= -.30834098E+05 F= -.33033125E+05 EK= 0.21990E+04 SP= 0.00E+00 SK= 0.00E+00
      900 T=  2419. E= -.30834143E+05 F= -.33040518E+05 EK= 0.22064E+04 SP= 0.00E+00 SK= 0.00E+00
      910 T=  2423. E= -.30834165E+05 F= -.33043533E+05 EK= 0.22094E+04 SP= 0.00E+00 SK= 0.00E+00
      920 T=  2446. E= -.30834152E+05 F= -.33064852E+05 EK= 0.22307E+04 SP= 0.00E+00 SK= 0.00E+00
      930 T=  2448. E= -.30834154E+05 F= -.33066526E+05 EK= 0.22324E+04 SP= 0.00E+00 SK= 0.00E+00
      940 T=  2422. E= -.30834126E+05 F= -.33042966E+05 EK= 0.22088E+04 SP= 0.00E+00 SK= 0.00E+00
      950 T=  2433. E= -.30834118E+05 F= -.33053267E+05 EK= 0.22191E+04 SP= 0.00E+00 SK= 0.00E+00
      960 T=  2434. E= -.30834140E+05 F= -.33054017E+05 EK= 0.22199E+04 SP= 0.00E+00 SK= 0.00E+00
      970 T=  2416. E= -.30834130E+05 F= -.33037175E+05 EK= 0.22030E+04 SP= 0.00E+00 SK= 0.00E+00
      980 T=  2423. E= -.30834208E+05 F= -.33043751E+05 EK= 0.22095E+04 SP= 0.00E+00 SK= 0.00E+00
      990 T=  2437. E= -.30834196E+05 F= -.33056654E+05 EK= 0.22225E+04 SP= 0.00E+00 SK= 0.00E+00
     1000 T=  2427. E= -.30834161E+05 F= -.33047348E+05 EK= 0.22132E+04 SP= 0.00E+00 SK= 0.00E+00
     1010 T=  2428. E= -.30834187E+05 F= -.33048204E+05 EK= 0.22140E+04 SP= 0.00E+00 SK= 0.00E+00
     1020 T=  2448. E= -.30834214E+05 F= -.33066412E+05 EK= 0.22322E+04 SP= 0.00E+00 SK= 0.00E+00
     1030 T=  2448. E= -.30834214E+05 F= -.33066915E+05 EK= 0.22327E+04 SP= 0.00E+00 SK= 0.00E+00
     1040 T=  2436. E= -.30834199E+05 F= -.33056066E+05 EK= 0.22219E+04 SP= 0.00E+00 SK= 0.00E+00
     1050 T=  2424. E= -.30834286E+05 F= -.33044796E+05 EK= 0.22105E+04 SP= 0.00E+00 SK= 0.00E+00
     1060 T=  2410. E= -.30834211E+05 F= -.33031737E+05 EK= 0.21975E+04 SP= 0.00E+00 SK= 0.00E+00
     1070 T=  2432. E= -.30834287E+05 F= -.33051943E+05 EK= 0.22177E+04 SP= 0.00E+00 SK= 0.00E+00
     1080 T=  2418. E= -.30834198E+05 F= -.33038826E+05 EK= 0.22046E+04 SP= 0.00E+00 SK= 0.00E+00
     1090 T=  2428. E= -.30834179E+05 F= -.33048571E+05 EK= 0.22144E+04 SP= 0.00E+00 SK= 0.00E+00
     1100 T=  2450. E= -.30834234E+05 F= -.33068266E+05 EK= 0.22340E+04 SP= 0.00E+00 SK= 0.00E+00
     1110 T=  2449. E= -.30834197E+05 F= -.33067371E+05 EK= 0.22332E+04 SP= 0.00E+00 SK= 0.00E+00
     1120 T=  2432. E= -.30834155E+05 F= -.33052060E+05 EK= 0.22179E+04 SP= 0.00E+00 SK= 0.00E+00
     1130 T=  2416. E= -.30834134E+05 F= -.33036976E+05 EK= 0.22028E+04 SP= 0.00E+00 SK= 0.00E+00
     1140 T=  2441. E= -.30834154E+05 F= -.33059835E+05 EK= 0.22257E+04 SP= 0.00E+00 SK= 0.00E+00
     1150 T=  2457. E= -.30834158E+05 F= -.33074375E+05 EK= 0.22402E+04 SP= 0.00E+00 SK= 0.00E+00
     1160 T=  2444. E= -.30834173E+05 F= -.33063248E+05 EK= 0.22291E+04 SP= 0.00E+00 SK= 0.00E+00
     1170 T=  2439. E= -.30834156E+05 F= -.33058054E+05 EK= 0.22239E+04 SP= 0.00E+00 SK= 0.00E+00
     1180 T=  2432. E= -.30834140E+05 F= -.33052291E+05 EK= 0.22182E+04 SP= 0.00E+00 SK= 0.00E+00
     1190 T=  2418. E= -.30834178E+05 F= -.33039173E+05 EK= 0.22050E+04 SP= 0.00E+00 SK= 0.00E+00
     1200 T=  2403. E= -.30834174E+05 F= -.33025306E+05 EK= 0.21911E+04 SP= 0.00E+00 SK= 0.00E+00
     1210 T=  2412. E= -.30834198E+05 F= -.33034167E+05 EK= 0.22000E+04 SP= 0.00E+00 SK= 0.00E+00
     1220 T=  2437. E= -.30834261E+05 F= -.33056624E+05 EK= 0.22224E+04 SP= 0.00E+00 SK= 0.00E+00
     1230 T=  2422. E= -.30834217E+05 F= -.33042865E+05 EK= 0.22086E+04 SP= 0.00E+00 SK= 0.00E+00
     1240 T=  2442. E= -.30834207E+05 F= -.33061398E+05 EK= 0.22272E+04 SP= 0.00E+00 SK= 0.00E+00
     1250 T=  2469. E= -.30834256E+05 F= -.33085998E+05 EK= 0.22517E+04 SP= 0.00E+00 SK= 0.00E+00
     1260 T=  2448. E= -.30834201E+05 F= -.33066481E+05 EK= 0.22323E+04 SP= 0.00E+00 SK= 0.00E+00
     1270 T=  2413. E= -.30834211E+05 F= -.33034777E+05 EK= 0.22006E+04 SP= 0.00E+00 SK= 0.00E+00
     1280 T=  2401. E= -.30834204E+05 F= -.33023636E+05 EK= 0.21894E+04 SP= 0.00E+00 SK= 0.00E+00
     1290 T=  2419. E= -.30834250E+05 F= -.33040574E+05 EK= 0.22063E+04 SP= 0.00E+00 SK= 0.00E+00
     1300 T=  2454. E= -.30834287E+05 F= -.33072527E+05 EK= 0.22382E+04 SP= 0.00E+00 SK= 0.00E+00
     1310 T=  2447. E= -.30834228E+05 F= -.33065954E+05 EK= 0.22317E+04 SP= 0.00E+00 SK= 0.00E+00
     1320 T=  2444. E= -.30834254E+05 F= -.33063478E+05 EK= 0.22292E+04 SP= 0.00E+00 SK= 0.00E+00
     1330 T=  2437. E= -.30834229E+05 F= -.33056600E+05 EK= 0.22224E+04 SP= 0.00E+00 SK= 0.00E+00
     1340 T=  2426. E= -.30834213E+05 F= -.33046211E+05 EK= 0.22120E+04 SP= 0.00E+00 SK= 0.00E+00
     1350 T=  2421. E= -.30834203E+05 F= -.33042258E+05 EK= 0.22081E+04 SP= 0.00E+00 SK= 0.00E+00
     1360 T=  2423. E= -.30834190E+05 F= -.33043421E+05 EK= 0.22092E+04 SP= 0.00E+00 SK= 0.00E+00
     1370 T=  2427. E= -.30834201E+05 F= -.33047306E+05 EK= 0.22131E+04 SP= 0.00E+00 SK= 0.00E+00
     1380 T=  2438. E= -.30834190E+05 F= -.33057522E+05 EK= 0.22233E+04 SP= 0.00E+00 SK= 0.00E+00
     1390 T=  2472. E= -.30834272E+05 F= -.33088826E+05 EK= 0.22546E+04 SP= 0.00E+00 SK= 0.00E+00
     1400 T=  2441. E= -.30834225E+05 F= -.33060650E+05 EK= 0.22264E+04 SP= 0.00E+00 SK= 0.00E+00
     1410 T=  2393. E= -.30834151E+05 F= -.33016685E+05 EK= 0.21825E+04 SP= 0.00E+00 SK= 0.00E+00
     1420 T=  2437. E= -.30834261E+05 F= -.33056515E+05 EK= 0.22223E+04 SP= 0.00E+00 SK= 0.00E+00
     1430 T=  2449. E= -.30834282E+05 F= -.33067805E+05 EK= 0.22335E+04 SP= 0.00E+00 SK= 0.00E+00
     1440 T=  2412. E= -.30834180E+05 F= -.33034115E+05 EK= 0.21999E+04 SP= 0.00E+00 SK= 0.00E+00
     1450 T=  2435. E= -.30834245E+05 F= -.33054643E+05 EK= 0.22204E+04 SP= 0.00E+00 SK= 0.00E+00
     1460 T=  2454. E= -.30834296E+05 F= -.33072445E+05 EK= 0.22381E+04 SP= 0.00E+00 SK= 0.00E+00
     1470 T=  2444. E= -.30834277E+05 F= -.33062859E+05 EK= 0.22286E+04 SP= 0.00E+00 SK= 0.00E+00
     1480 T=  2434. E= -.30834259E+05 F= -.33053775E+05 EK= 0.22195E+04 SP= 0.00E+00 SK= 0.00E+00
     1490 T=  2443. E= -.30834284E+05 F= -.33062114E+05 EK= 0.22278E+04 SP= 0.00E+00 SK= 0.00E+00
     1500 T=  2442. E= -.30834299E+05 F= -.33061065E+05 EK= 0.22268E+04 SP= 0.00E+00 SK= 0.00E+00
     1510 T=  2428. E= -.30834243E+05 F= -.33048710E+05 EK= 0.22145E+04 SP= 0.00E+00 SK= 0.00E+00
     1520 T=  2431. E= -.30834297E+05 F= -.33051518E+05 EK= 0.22172E+04 SP= 0.00E+00 SK= 0.00E+00
     1530 T=  2418. E= -.30834289E+05 F= -.33039516E+05 EK= 0.22052E+04 SP= 0.00E+00 SK= 0.00E+00
     1540 T=  2410. E= -.30834265E+05 F= -.33032114E+05 EK= 0.21978E+04 SP= 0.00E+00 SK= 0.00E+00
     1550 T=  2445. E= -.30834344E+05 F= -.33064444E+05 EK= 0.22301E+04 SP= 0.00E+00 SK= 0.00E+00
     1560 T=  2440. E= -.30834331E+05 F= -.33059479E+05 EK= 0.22251E+04 SP= 0.00E+00 SK= 0.00E+00
     1570 T=  2413. E= -.30834273E+05 F= -.33034423E+05 EK= 0.22002E+04 SP= 0.00E+00 SK= 0.00E+00
     1580 T=  2443. E= -.30834389E+05 F= -.33062068E+05 EK= 0.22277E+04 SP= 0.00E+00 SK= 0.00E+00
     1590 T=  2411. E= -.30834307E+05 F= -.33032972E+05 EK= 0.21987E+04 SP= 0.00E+00 SK= 0.00E+00
     1600 T=  2420. E= -.30834334E+05 F= -.33040911E+05 EK= 0.22066E+04 SP= 0.00E+00 SK= 0.00E+00
     1610 T=  2453. E= -.30834410E+05 F= -.33071329E+05 EK= 0.22369E+04 SP= 0.00E+00 SK= 0.00E+00
     1620 T=  2422. E= -.30834312E+05 F= -.33042739E+05 EK= 0.22084E+04 SP= 0.00E+00 SK= 0.00E+00
     1630 T=  2407. E= -.30834357E+05 F= -.33029748E+05 EK= 0.21954E+04 SP= 0.00E+00 SK= 0.00E+00
     1640 T=  2424. E= -.30834369E+05 F= -.33045075E+05 EK= 0.22107E+04 SP= 0.00E+00 SK= 0.00E+00
     1650 T=  2445. E= -.30834378E+05 F= -.33064297E+05 EK= 0.22299E+04 SP= 0.00E+00 SK= 0.00E+00
     1660 T=  2434. E= -.30834334E+05 F= -.33054164E+05 EK= 0.22198E+04 SP= 0.00E+00 SK= 0.00E+00
     1670 T=  2441. E= -.30834351E+05 F= -.33060442E+05 EK= 0.22261E+04 SP= 0.00E+00 SK= 0.00E+00
     1680 T=  2454. E= -.30834362E+05 F= -.33072094E+05 EK= 0.22377E+04 SP= 0.00E+00 SK= 0.00E+00
     1690 T=  2431. E= -.30834282E+05 F= -.33050962E+05 EK= 0.22167E+04 SP= 0.00E+00 SK= 0.00E+00
     1700 T=  2452. E= -.30834339E+05 F= -.33070044E+05 EK= 0.22357E+04 SP= 0.00E+00 SK= 0.00E+00
     1710 T=  2442. E= -.30834293E+05 F= -.33061247E+05 EK= 0.22270E+04 SP= 0.00E+00 SK= 0.00E+00
     1720 T=  2422. E= -.30834297E+05 F= -.33042855E+05 EK= 0.22086E+04 SP= 0.00E+00 SK= 0.00E+00
     1730 T=  2456. E= -.30834397E+05 F= -.33074358E+05 EK= 0.22400E+04 SP= 0.00E+00 SK= 0.00E+00
     1740 T=  2420. E= -.30834364E+05 F= -.33041682E+05 EK= 0.22073E+04 SP= 0.00E+00 SK= 0.00E+00
     1750 T=  2374. E= -.30834240E+05 F= -.32999067E+05 EK= 0.21648E+04 SP= 0.00E+00 SK= 0.00E+00
     1760 T=  2419. E= -.30834302E+05 F= -.33040284E+05 EK= 0.22060E+04 SP= 0.00E+00 SK= 0.00E+00
     1770 T=  2445. E= -.30834260E+05 F= -.33063950E+05 EK= 0.22297E+04 SP= 0.00E+00 SK= 0.00E+00
     1780 T=  2462. E= -.30834238E+05 F= -.33079114E+05 EK= 0.22449E+04 SP= 0.00E+00 SK= 0.00E+00
     1790 T=  2486. E= -.30834317E+05 F= -.33101441E+05 EK= 0.22671E+04 SP= 0.00E+00 SK= 0.00E+00
     1800 T=  2433. E= -.30834270E+05 F= -.33053452E+05 EK= 0.22192E+04 SP= 0.00E+00 SK= 0.00E+00
     1810 T=  2416. E= -.30834246E+05 F= -.33037157E+05 EK= 0.22029E+04 SP= 0.00E+00 SK= 0.00E+00
     1820 T=  2452. E= -.30834333E+05 F= -.33070569E+05 EK= 0.22362E+04 SP= 0.00E+00 SK= 0.00E+00
     1830 T=  2439. E= -.30834281E+05 F= -.33058692E+05 EK= 0.22244E+04 SP= 0.00E+00 SK= 0.00E+00
     1840 T=  2417. E= -.30834231E+05 F= -.33038175E+05 EK= 0.22039E+04 SP= 0.00E+00 SK= 0.00E+00
     1850 T=  2410. E= -.30834215E+05 F= -.33032394E+05 EK= 0.21982E+04 SP= 0.00E+00 SK= 0.00E+00
     1860 T=  2420. E= -.30834259E+05 F= -.33040891E+05 EK= 0.22066E+04 SP= 0.00E+00 SK= 0.00E+00
     1870 T=  2423. E= -.30834230E+05 F= -.33044165E+05 EK= 0.22099E+04 SP= 0.00E+00 SK= 0.00E+00
     1880 T=  2468. E= -.30834300E+05 F= -.33084663E+05 EK= 0.22504E+04 SP= 0.00E+00 SK= 0.00E+00
     1890 T=  2475. E= -.30834264E+05 F= -.33091412E+05 EK= 0.22571E+04 SP= 0.00E+00 SK= 0.00E+00
     1900 T=  2429. E= -.30834229E+05 F= -.33049616E+05 EK= 0.22154E+04 SP= 0.00E+00 SK= 0.00E+00
     1910 T=  2410. E= -.30834202E+05 F= -.33032126E+05 EK= 0.21979E+04 SP= 0.00E+00 SK= 0.00E+00
     1920 T=  2409. E= -.30834234E+05 F= -.33030736E+05 EK= 0.21965E+04 SP= 0.00E+00 SK= 0.00E+00
     1930 T=  2399. E= -.30834204E+05 F= -.33022045E+05 EK= 0.21878E+04 SP= 0.00E+00 SK= 0.00E+00
     1940 T=  2440. E= -.30834304E+05 F= -.33059774E+05 EK= 0.22255E+04 SP= 0.00E+00 SK= 0.00E+00
     1950 T=  2448. E= -.30834342E+05 F= -.33066524E+05 EK= 0.22322E+04 SP= 0.00E+00 SK= 0.00E+00
     1960 T=  2401. E= -.30834280E+05 F= -.33024108E+05 EK= 0.21898E+04 SP= 0.00E+00 SK= 0.00E+00
     1970 T=  2413. E= -.30834278E+05 F= -.33034535E+05 EK= 0.22003E+04 SP= 0.00E+00 SK= 0.00E+00
     1980 T=  2484. E= -.30834329E+05 F= -.33099725E+05 EK= 0.22654E+04 SP= 0.00E+00 SK= 0.00E+00
     1990 T=  2442. E= -.30834232E+05 F= -.33060863E+05 EK= 0.22266E+04 SP= 0.00E+00 SK= 0.00E+00
At line 1940 of file md.f90
Fortran runtime error: Unit number is negative and unit was not already opened with OPEN(NEWUNIT=...)

Error termination. Backtrace:
At line 1940 of file md.f90
Fortran runtime error: Unit number is negative and unit was not already opened with OPEN(NEWUNIT=...)

Error termination. Backtrace:
At line 1940 of file md.f90
Fortran runtime error: Unit number is negative and unit was not already opened with OPEN(NEWUNIT=...)

Error termination. Backtrace:
At line 1940 of file md.f90
Fortran runtime error: Unit number is negative and unit was not already opened with OPEN(NEWUNIT=...)

Error termination. Backtrace:
At line 1940 of file md.f90
Fortran runtime error: Unit number is negative and unit was not already opened with OPEN(NEWUNIT=...)

Error termination. Backtrace:
     2000 T=  2422. E= -.30834247E+05 F= -.33042922E+05 EK= 0.22087E+04 SP= 0.00E+00 SK= 0.00E+00
Rc and Rl:   5.500000  7.321000

Average number of steps between two list updates:  25.32
Average number of atoms in the shell:     0.01
#0  0x7f9ddc57fd11 in ???
#1  0x7f9ddc580859 in ???
#2  0x7f9ddc58153f in ???
#3  0x5563c5d4c0bc in ???
#4  0x5563c5d4792e in ???
#5  0x7f9ddc216082 in __libc_start_main
	at ../csu/libc-start.c:308
#6  0x5563c5d4796d in ???
#7  0xffffffffffffffff in ???
#0  0x7f959ea47d11 in ???
#1  0x7f959ea48859 in ???
#2  0x7f959ea4953f in ???
#3  0x557355e590bc in ???
#4  0x557355e5492e in ???
#5  0x7f959e6de082 in __libc_start_main
	at ../csu/libc-start.c:308
#6  0x557355e5496d in ???
#7  0xffffffffffffffff in ???
#0  0x7f8dc5666d11 in ???
#1  0x7f8dc5667859 in ???
#2  0x7f8dc566853f in ???
#3  0x55a62dc440bc in ???
#4  0x55a62dc3f92e in ???
#5  0x7f8dc52fd082 in __libc_start_main
	at ../csu/libc-start.c:308
#6  0x55a62dc3f96d in ???
#7  0xffffffffffffffff in ???
