 running on    6 nodes
 distr:  one band on    1 nodes,    6 groups
 md.x 0.99
 POSCAR found :  1 types and     7056 ions
Rc and Rl:   5.500000  7.321000
 TIPO = eam     
 TIPO1 = uknown p
 Using EAM

 EAM parameters: 
 C  =   9.9634  EPS  = 0.2048  A  = 3.5678  M  = 3.127  N  =  6.366  R1 =   5.500000


 ----------------------------------------------------------------------------- 
|                                                                             |
|           W    W    AA    RRRRR   N    N  II  N    N   GGGG   !!!           |
|           W    W   A  A   R    R  NN   N  II  NN   N  G    G  !!!           |
|           W    W  A    A  R    R  N N  N  II  N N  N  G       !!!           |
|           W WW W  AAAAAA  RRRRR   N  N N  II  N  N N  G  GGG   !            |
|           WW  WW  A    A  R   R   N   NN  II  N   NN  G    G                |
|           W    W  A    A  R    R  N    N  II  N    N   GGGG   !!!           |
|                                                                             |
|      VASP found  21165 degrees of freedom                                   |
|      the temperature will equal 2*E(kin)/ (degrees of freedom)              |
|      this differs from previous releases, where T was 2*E(kin)/(3 NIONS).   |
|      The new definition is more consistent                                  |
|                                                                             |
 ----------------------------------------------------------------------------- 

 Random init:       19066       26637
 Random init:       19066       26637
 Random init:       19066       26637
 alloco spazio per displ
 Random init:       19066       26637
 Random init:       19066       26637
 Random init:       19066       26637
       10 T=  2530. E= -.14204149E+05 F= -.16511666E+05 EK= 0.23075E+04 SP= 0.00E+00 SK= 0.00E+00
       20 T=  2550. E= -.14204066E+05 F= -.16529567E+05 EK= 0.23255E+04 SP= 0.00E+00 SK= 0.00E+00
       30 T=  2610. E= -.14204082E+05 F= -.16584445E+05 EK= 0.23804E+04 SP= 0.00E+00 SK= 0.00E+00
       40 T=  2703. E= -.14204099E+05 F= -.16668767E+05 EK= 0.24647E+04 SP= 0.00E+00 SK= 0.00E+00
       50 T=  2780. E= -.14204057E+05 F= -.16738833E+05 EK= 0.25348E+04 SP= 0.00E+00 SK= 0.00E+00
       60 T=  2878. E= -.14204075E+05 F= -.16828255E+05 EK= 0.26242E+04 SP= 0.00E+00 SK= 0.00E+00
       70 T=  2949. E= -.14204045E+05 F= -.16893492E+05 EK= 0.26894E+04 SP= 0.00E+00 SK= 0.00E+00
       80 T=  3016. E= -.14203997E+05 F= -.16954477E+05 EK= 0.27505E+04 SP= 0.00E+00 SK= 0.00E+00
       90 T=  3117. E= -.14204021E+05 F= -.17046751E+05 EK= 0.28427E+04 SP= 0.00E+00 SK= 0.00E+00
      100 T=  3201. E= -.14203995E+05 F= -.17122899E+05 EK= 0.29189E+04 SP= 0.00E+00 SK= 0.00E+00
      110 T=  3271. E= -.14203971E+05 F= -.17186766E+05 EK= 0.29828E+04 SP= 0.00E+00 SK= 0.00E+00
      120 T=  3343. E= -.14203951E+05 F= -.17252145E+05 EK= 0.30482E+04 SP= 0.00E+00 SK= 0.00E+00
      130 T=  3431. E= -.14203940E+05 F= -.17332441E+05 EK= 0.31285E+04 SP= 0.00E+00 SK= 0.00E+00
      140 T=  3504. E= -.14203935E+05 F= -.17399304E+05 EK= 0.31954E+04 SP= 0.00E+00 SK= 0.00E+00
      150 T=  3578. E= -.14203896E+05 F= -.17466973E+05 EK= 0.32631E+04 SP= 0.00E+00 SK= 0.00E+00
      160 T=  3665. E= -.14203883E+05 F= -.17546453E+05 EK= 0.33426E+04 SP= 0.00E+00 SK= 0.00E+00
      170 T=  3744. E= -.14203896E+05 F= -.17617900E+05 EK= 0.34140E+04 SP= 0.00E+00 SK= 0.00E+00
      180 T=  3794. E= -.14203824E+05 F= -.17663656E+05 EK= 0.34598E+04 SP= 0.00E+00 SK= 0.00E+00
      190 T=  3867. E= -.14203823E+05 F= -.17730098E+05 EK= 0.35263E+04 SP= 0.00E+00 SK= 0.00E+00
      200 T=  3937. E= -.14203816E+05 F= -.17794318E+05 EK= 0.35905E+04 SP= 0.00E+00 SK= 0.00E+00
      210 T=  3985. E= -.14203819E+05 F= -.17837787E+05 EK= 0.36340E+04 SP= 0.00E+00 SK= 0.00E+00
      220 T=  4023. E= -.14203781E+05 F= -.17872690E+05 EK= 0.36689E+04 SP= 0.00E+00 SK= 0.00E+00
      230 T=  4070. E= -.14203776E+05 F= -.17915433E+05 EK= 0.37117E+04 SP= 0.00E+00 SK= 0.00E+00
      240 T=  4099. E= -.14203728E+05 F= -.17941419E+05 EK= 0.37377E+04 SP= 0.00E+00 SK= 0.00E+00
      250 T=  4127. E= -.14203740E+05 F= -.17966988E+05 EK= 0.37632E+04 SP= 0.00E+00 SK= 0.00E+00
      260 T=  4148. E= -.14203727E+05 F= -.17986468E+05 EK= 0.37827E+04 SP= 0.00E+00 SK= 0.00E+00
      270 T=  4168. E= -.14203693E+05 F= -.18004516E+05 EK= 0.38008E+04 SP= 0.00E+00 SK= 0.00E+00
      280 T=  4193. E= -.14203702E+05 F= -.18027661E+05 EK= 0.38240E+04 SP= 0.00E+00 SK= 0.00E+00
      290 T=  4204. E= -.14203674E+05 F= -.18037702E+05 EK= 0.38340E+04 SP= 0.00E+00 SK= 0.00E+00
      300 T=  4213. E= -.14203619E+05 F= -.18045147E+05 EK= 0.38415E+04 SP= 0.00E+00 SK= 0.00E+00
      310 T=  4233. E= -.14203644E+05 F= -.18064208E+05 EK= 0.38606E+04 SP= 0.00E+00 SK= 0.00E+00
      320 T=  4247. E= -.14203652E+05 F= -.18076569E+05 EK= 0.38729E+04 SP= 0.00E+00 SK= 0.00E+00
      330 T=  4254. E= -.14203619E+05 F= -.18082666E+05 EK= 0.38790E+04 SP= 0.00E+00 SK= 0.00E+00
      340 T=  4262. E= -.14203579E+05 F= -.18090128E+05 EK= 0.38865E+04 SP= 0.00E+00 SK= 0.00E+00
      350 T=  4266. E= -.14203557E+05 F= -.18094020E+05 EK= 0.38905E+04 SP= 0.00E+00 SK= 0.00E+00
      360 T=  4278. E= -.14203560E+05 F= -.18104828E+05 EK= 0.39013E+04 SP= 0.00E+00 SK= 0.00E+00
      370 T=  4288. E= -.14203559E+05 F= -.18113484E+05 EK= 0.39099E+04 SP= 0.00E+00 SK= 0.00E+00
      380 T=  4283. E= -.14203555E+05 F= -.18109294E+05 EK= 0.39057E+04 SP= 0.00E+00 SK= 0.00E+00
      390 T=  4277. E= -.14203564E+05 F= -.18103755E+05 EK= 0.39002E+04 SP= 0.00E+00 SK= 0.00E+00
      400 T=  4271. E= -.14203571E+05 F= -.18098032E+05 EK= 0.38945E+04 SP= 0.00E+00 SK= 0.00E+00
      410 T=  4254. E= -.14203562E+05 F= -.18083354E+05 EK= 0.38798E+04 SP= 0.00E+00 SK= 0.00E+00
      420 T=  4233. E= -.14203551E+05 F= -.18064138E+05 EK= 0.38606E+04 SP= 0.00E+00 SK= 0.00E+00
      430 T=  4222. E= -.14203579E+05 F= -.18053584E+05 EK= 0.38500E+04 SP= 0.00E+00 SK= 0.00E+00
      440 T=  4210. E= -.14203586E+05 F= -.18042455E+05 EK= 0.38389E+04 SP= 0.00E+00 SK= 0.00E+00
      450 T=  4184. E= -.14203584E+05 F= -.18018845E+05 EK= 0.38153E+04 SP= 0.00E+00 SK= 0.00E+00
      460 T=  4149. E= -.14203559E+05 F= -.17987173E+05 EK= 0.37836E+04 SP= 0.00E+00 SK= 0.00E+00
      470 T=  4119. E= -.14203576E+05 F= -.17959893E+05 EK= 0.37563E+04 SP= 0.00E+00 SK= 0.00E+00
      480 T=  4094. E= -.14203562E+05 F= -.17936585E+05 EK= 0.37330E+04 SP= 0.00E+00 SK= 0.00E+00
      490 T=  4070. E= -.14203567E+05 F= -.17915285E+05 EK= 0.37117E+04 SP= 0.00E+00 SK= 0.00E+00
      500 T=  4043. E= -.14203563E+05 F= -.17890089E+05 EK= 0.36865E+04 SP= 0.00E+00 SK= 0.00E+00
      510 T=  4008. E= -.14203575E+05 F= -.17858842E+05 EK= 0.36553E+04 SP= 0.00E+00 SK= 0.00E+00
      520 T=  3973. E= -.14203560E+05 F= -.17826331E+05 EK= 0.36228E+04 SP= 0.00E+00 SK= 0.00E+00
      530 T=  3939. E= -.14203540E+05 F= -.17795324E+05 EK= 0.35918E+04 SP= 0.00E+00 SK= 0.00E+00
      540 T=  3909. E= -.14203528E+05 F= -.17768215E+05 EK= 0.35647E+04 SP= 0.00E+00 SK= 0.00E+00
      550 T=  3872. E= -.14203529E+05 F= -.17734480E+05 EK= 0.35310E+04 SP= 0.00E+00 SK= 0.00E+00
      560 T=  3829. E= -.14203518E+05 F= -.17695430E+05 EK= 0.34919E+04 SP= 0.00E+00 SK= 0.00E+00
      570 T=  3788. E= -.14203528E+05 F= -.17658072E+05 EK= 0.34545E+04 SP= 0.00E+00 SK= 0.00E+00
      580 T=  3756. E= -.14203528E+05 F= -.17628915E+05 EK= 0.34254E+04 SP= 0.00E+00 SK= 0.00E+00
      590 T=  3730. E= -.14203541E+05 F= -.17605158E+05 EK= 0.34016E+04 SP= 0.00E+00 SK= 0.00E+00
      600 T=  3699. E= -.14203554E+05 F= -.17576385E+05 EK= 0.33728E+04 SP= 0.00E+00 SK= 0.00E+00
      610 T=  3663. E= -.14203564E+05 F= -.17543672E+05 EK= 0.33401E+04 SP= 0.00E+00 SK= 0.00E+00
      620 T=  3622. E= -.14203576E+05 F= -.17506241E+05 EK= 0.33027E+04 SP= 0.00E+00 SK= 0.00E+00
      630 T=  3576. E= -.14203567E+05 F= -.17464649E+05 EK= 0.32611E+04 SP= 0.00E+00 SK= 0.00E+00
      640 T=  3536. E= -.14203561E+05 F= -.17428014E+05 EK= 0.32245E+04 SP= 0.00E+00 SK= 0.00E+00
      650 T=  3502. E= -.14203579E+05 F= -.17396830E+05 EK= 0.31933E+04 SP= 0.00E+00 SK= 0.00E+00
      660 T=  3471. E= -.14203566E+05 F= -.17369285E+05 EK= 0.31657E+04 SP= 0.00E+00 SK= 0.00E+00
      670 T=  3443. E= -.14203569E+05 F= -.17343742E+05 EK= 0.31402E+04 SP= 0.00E+00 SK= 0.00E+00
      680 T=  3415. E= -.14203585E+05 F= -.17318049E+05 EK= 0.31145E+04 SP= 0.00E+00 SK= 0.00E+00
      690 T=  3387. E= -.14203593E+05 F= -.17292364E+05 EK= 0.30888E+04 SP= 0.00E+00 SK= 0.00E+00
      700 T=  3354. E= -.14203598E+05 F= -.17261878E+05 EK= 0.30583E+04 SP= 0.00E+00 SK= 0.00E+00
      710 T=  3322. E= -.14203586E+05 F= -.17233347E+05 EK= 0.30298E+04 SP= 0.00E+00 SK= 0.00E+00
      720 T=  3301. E= -.14203577E+05 F= -.17213826E+05 EK= 0.30102E+04 SP= 0.00E+00 SK= 0.00E+00
      730 T=  3287. E= -.14203582E+05 F= -.17201077E+05 EK= 0.29975E+04 SP= 0.00E+00 SK= 0.00E+00
      740 T=  3273. E= -.14203585E+05 F= -.17188662E+05 EK= 0.29851E+04 SP= 0.00E+00 SK= 0.00E+00
      750 T=  3251. E= -.14203594E+05 F= -.17168126E+05 EK= 0.29645E+04 SP= 0.00E+00 SK= 0.00E+00
      760 T=  3227. E= -.14203589E+05 F= -.17146514E+05 EK= 0.29429E+04 SP= 0.00E+00 SK= 0.00E+00
      770 T=  3218. E= -.14203584E+05 F= -.17137954E+05 EK= 0.29344E+04 SP= 0.00E+00 SK= 0.00E+00
      780 T=  3217. E= -.14203636E+05 F= -.17137590E+05 EK= 0.29340E+04 SP= 0.00E+00 SK= 0.00E+00
      790 T=  3185. E= -.14203627E+05 F= -.17108131E+05 EK= 0.29045E+04 SP= 0.00E+00 SK= 0.00E+00
      800 T=  3150. E= -.14203635E+05 F= -.17076436E+05 EK= 0.28728E+04 SP= 0.00E+00 SK= 0.00E+00
      810 T=  3125. E= -.14203633E+05 F= -.17053279E+05 EK= 0.28496E+04 SP= 0.00E+00 SK= 0.00E+00
      820 T=  3115. E= -.14203657E+05 F= -.17044272E+05 EK= 0.28406E+04 SP= 0.00E+00 SK= 0.00E+00
      830 T=  3099. E= -.14203683E+05 F= -.17029818E+05 EK= 0.28261E+04 SP= 0.00E+00 SK= 0.00E+00
      840 T=  3065. E= -.14203625E+05 F= -.16998836E+05 EK= 0.27952E+04 SP= 0.00E+00 SK= 0.00E+00
      850 T=  3056. E= -.14203597E+05 F= -.16990740E+05 EK= 0.27871E+04 SP= 0.00E+00 SK= 0.00E+00
      860 T=  3059. E= -.14203666E+05 F= -.16993552E+05 EK= 0.27899E+04 SP= 0.00E+00 SK= 0.00E+00
      870 T=  3015. E= -.14203592E+05 F= -.16953288E+05 EK= 0.27497E+04 SP= 0.00E+00 SK= 0.00E+00
      880 T=  2997. E= -.14203620E+05 F= -.16936788E+05 EK= 0.27332E+04 SP= 0.00E+00 SK= 0.00E+00
      890 T=  3002. E= -.14203619E+05 F= -.16940937E+05 EK= 0.27373E+04 SP= 0.00E+00 SK= 0.00E+00
      900 T=  3012. E= -.14203616E+05 F= -.16950671E+05 EK= 0.27471E+04 SP= 0.00E+00 SK= 0.00E+00
      910 T=  3011. E= -.14203618E+05 F= -.16949104E+05 EK= 0.27455E+04 SP= 0.00E+00 SK= 0.00E+00
      920 T=  3005. E= -.14203614E+05 F= -.16944322E+05 EK= 0.27407E+04 SP= 0.00E+00 SK= 0.00E+00
      930 T=  3005. E= -.14203683E+05 F= -.16943788E+05 EK= 0.27401E+04 SP= 0.00E+00 SK= 0.00E+00
      940 T=  3003. E= -.14203651E+05 F= -.16942491E+05 EK= 0.27388E+04 SP= 0.00E+00 SK= 0.00E+00
      950 T=  3023. E= -.14203689E+05 F= -.16960036E+05 EK= 0.27563E+04 SP= 0.00E+00 SK= 0.00E+00
      960 T=  3028. E= -.14203680E+05 F= -.16965020E+05 EK= 0.27613E+04 SP= 0.00E+00 SK= 0.00E+00
      970 T=  3034. E= -.14203667E+05 F= -.16970519E+05 EK= 0.27669E+04 SP= 0.00E+00 SK= 0.00E+00
      980 T=  3041. E= -.14203675E+05 F= -.16976791E+05 EK= 0.27731E+04 SP= 0.00E+00 SK= 0.00E+00
      990 T=  3047. E= -.14203716E+05 F= -.16982753E+05 EK= 0.27790E+04 SP= 0.00E+00 SK= 0.00E+00
     1000 T=  3054. E= -.14203714E+05 F= -.16988353E+05 EK= 0.27846E+04 SP= 0.00E+00 SK= 0.00E+00
     1010 T=  3052. E= -.14203686E+05 F= -.16986539E+05 EK= 0.27829E+04 SP= 0.00E+00 SK= 0.00E+00
     1020 T=  3064. E= -.14203706E+05 F= -.16998247E+05 EK= 0.27945E+04 SP= 0.00E+00 SK= 0.00E+00
     1030 T=  3077. E= -.14203784E+05 F= -.17009608E+05 EK= 0.28058E+04 SP= 0.00E+00 SK= 0.00E+00
     1040 T=  3054. E= -.14203761E+05 F= -.16988981E+05 EK= 0.27852E+04 SP= 0.00E+00 SK= 0.00E+00
     1050 T=  3061. E= -.14203784E+05 F= -.16995496E+05 EK= 0.27917E+04 SP= 0.00E+00 SK= 0.00E+00
     1060 T=  3073. E= -.14203757E+05 F= -.17005751E+05 EK= 0.28020E+04 SP= 0.00E+00 SK= 0.00E+00
     1070 T=  3090. E= -.14203788E+05 F= -.17022075E+05 EK= 0.28183E+04 SP= 0.00E+00 SK= 0.00E+00
     1080 T=  3081. E= -.14203755E+05 F= -.17013820E+05 EK= 0.28101E+04 SP= 0.00E+00 SK= 0.00E+00
     1090 T=  3087. E= -.14203808E+05 F= -.17018567E+05 EK= 0.28148E+04 SP= 0.00E+00 SK= 0.00E+00
     1100 T=  3092. E= -.14203786E+05 F= -.17023200E+05 EK= 0.28194E+04 SP= 0.00E+00 SK= 0.00E+00
     1110 T=  3099. E= -.14203761E+05 F= -.17029620E+05 EK= 0.28259E+04 SP= 0.00E+00 SK= 0.00E+00
     1120 T=  3116. E= -.14203770E+05 F= -.17045384E+05 EK= 0.28416E+04 SP= 0.00E+00 SK= 0.00E+00
     1130 T=  3124. E= -.14203788E+05 F= -.17053088E+05 EK= 0.28493E+04 SP= 0.00E+00 SK= 0.00E+00
     1140 T=  3112. E= -.14203741E+05 F= -.17041632E+05 EK= 0.28379E+04 SP= 0.00E+00 SK= 0.00E+00
     1150 T=  3111. E= -.14203749E+05 F= -.17040950E+05 EK= 0.28372E+04 SP= 0.00E+00 SK= 0.00E+00
     1160 T=  3130. E= -.14203733E+05 F= -.17057984E+05 EK= 0.28543E+04 SP= 0.00E+00 SK= 0.00E+00
     1170 T=  3155. E= -.14203712E+05 F= -.17080765E+05 EK= 0.28771E+04 SP= 0.00E+00 SK= 0.00E+00
     1180 T=  3171. E= -.14203770E+05 F= -.17095653E+05 EK= 0.28919E+04 SP= 0.00E+00 SK= 0.00E+00
     1190 T=  3147. E= -.14203774E+05 F= -.17073848E+05 EK= 0.28701E+04 SP= 0.00E+00 SK= 0.00E+00
     1200 T=  3122. E= -.14203705E+05 F= -.17050906E+05 EK= 0.28472E+04 SP= 0.00E+00 SK= 0.00E+00
     1210 T=  3141. E= -.14203699E+05 F= -.17068009E+05 EK= 0.28643E+04 SP= 0.00E+00 SK= 0.00E+00
     1220 T=  3171. E= -.14203744E+05 F= -.17095685E+05 EK= 0.28919E+04 SP= 0.00E+00 SK= 0.00E+00
     1230 T=  3183. E= -.14203738E+05 F= -.17106819E+05 EK= 0.29031E+04 SP= 0.00E+00 SK= 0.00E+00
     1240 T=  3189. E= -.14203748E+05 F= -.17112251E+05 EK= 0.29085E+04 SP= 0.00E+00 SK= 0.00E+00
     1250 T=  3195. E= -.14203740E+05 F= -.17117425E+05 EK= 0.29137E+04 SP= 0.00E+00 SK= 0.00E+00
     1260 T=  3204. E= -.14203743E+05 F= -.17125322E+05 EK= 0.29216E+04 SP= 0.00E+00 SK= 0.00E+00
     1270 T=  3217. E= -.14203771E+05 F= -.17137859E+05 EK= 0.29341E+04 SP= 0.00E+00 SK= 0.00E+00
     1280 T=  3212. E= -.14203746E+05 F= -.17132463E+05 EK= 0.29287E+04 SP= 0.00E+00 SK= 0.00E+00
     1290 T=  3211. E= -.14203751E+05 F= -.17132341E+05 EK= 0.29286E+04 SP= 0.00E+00 SK= 0.00E+00
     1300 T=  3208. E= -.14203725E+05 F= -.17129385E+05 EK= 0.29257E+04 SP= 0.00E+00 SK= 0.00E+00
     1310 T=  3218. E= -.14203721E+05 F= -.17138525E+05 EK= 0.29348E+04 SP= 0.00E+00 SK= 0.00E+00
     1320 T=  3242. E= -.14203780E+05 F= -.17160002E+05 EK= 0.29562E+04 SP= 0.00E+00 SK= 0.00E+00
     1330 T=  3236. E= -.14203788E+05 F= -.17154601E+05 EK= 0.29508E+04 SP= 0.00E+00 SK= 0.00E+00
     1340 T=  3241. E= -.14203808E+05 F= -.17159405E+05 EK= 0.29556E+04 SP= 0.00E+00 SK= 0.00E+00
     1350 T=  3256. E= -.14203889E+05 F= -.17173469E+05 EK= 0.29696E+04 SP= 0.00E+00 SK= 0.00E+00
     1360 T=  3250. E= -.14203847E+05 F= -.17168005E+05 EK= 0.29642E+04 SP= 0.00E+00 SK= 0.00E+00
     1370 T=  3247. E= -.14203819E+05 F= -.17164960E+05 EK= 0.29611E+04 SP= 0.00E+00 SK= 0.00E+00
     1380 T=  3242. E= -.14203776E+05 F= -.17159872E+05 EK= 0.29561E+04 SP= 0.00E+00 SK= 0.00E+00
     1390 T=  3258. E= -.14203798E+05 F= -.17175070E+05 EK= 0.29713E+04 SP= 0.00E+00 SK= 0.00E+00
     1400 T=  3279. E= -.14203833E+05 F= -.17194195E+05 EK= 0.29904E+04 SP= 0.00E+00 SK= 0.00E+00
     1410 T=  3263. E= -.14203806E+05 F= -.17179570E+05 EK= 0.29758E+04 SP= 0.00E+00 SK= 0.00E+00
     1420 T=  3244. E= -.14203809E+05 F= -.17162079E+05 EK= 0.29583E+04 SP= 0.00E+00 SK= 0.00E+00
     1430 T=  3230. E= -.14203817E+05 F= -.17149441E+05 EK= 0.29456E+04 SP= 0.00E+00 SK= 0.00E+00
     1440 T=  3231. E= -.14203859E+05 F= -.17150156E+05 EK= 0.29463E+04 SP= 0.00E+00 SK= 0.00E+00
     1450 T=  3231. E= -.14203855E+05 F= -.17150706E+05 EK= 0.29469E+04 SP= 0.00E+00 SK= 0.00E+00
     1460 T=  3233. E= -.14203899E+05 F= -.17152311E+05 EK= 0.29484E+04 SP= 0.00E+00 SK= 0.00E+00
     1470 T=  3242. E= -.14203948E+05 F= -.17160834E+05 EK= 0.29569E+04 SP= 0.00E+00 SK= 0.00E+00
     1480 T=  3226. E= -.14203939E+05 F= -.17145986E+05 EK= 0.29420E+04 SP= 0.00E+00 SK= 0.00E+00
     1490 T=  3205. E= -.14203915E+05 F= -.17127063E+05 EK= 0.29231E+04 SP= 0.00E+00 SK= 0.00E+00
     1500 T=  3234. E= -.14203947E+05 F= -.17153594E+05 EK= 0.29496E+04 SP= 0.00E+00 SK= 0.00E+00
     1510 T=  3265. E= -.14203993E+05 F= -.17181487E+05 EK= 0.29775E+04 SP= 0.00E+00 SK= 0.00E+00
     1520 T=  3267. E= -.14203950E+05 F= -.17183089E+05 EK= 0.29791E+04 SP= 0.00E+00 SK= 0.00E+00
     1530 T=  3253. E= -.14203969E+05 F= -.17170715E+05 EK= 0.29667E+04 SP= 0.00E+00 SK= 0.00E+00
     1540 T=  3246. E= -.14203977E+05 F= -.17163710E+05 EK= 0.29597E+04 SP= 0.00E+00 SK= 0.00E+00
     1550 T=  3246. E= -.14203970E+05 F= -.17164459E+05 EK= 0.29605E+04 SP= 0.00E+00 SK= 0.00E+00
     1560 T=  3246. E= -.14204002E+05 F= -.17164556E+05 EK= 0.29606E+04 SP= 0.00E+00 SK= 0.00E+00
     1570 T=  3249. E= -.14204032E+05 F= -.17166570E+05 EK= 0.29625E+04 SP= 0.00E+00 SK= 0.00E+00
     1580 T=  3247. E= -.14204037E+05 F= -.17165394E+05 EK= 0.29614E+04 SP= 0.00E+00 SK= 0.00E+00
     1590 T=  3214. E= -.14204014E+05 F= -.17135132E+05 EK= 0.29311E+04 SP= 0.00E+00 SK= 0.00E+00
     1600 T=  3210. E= -.14204033E+05 F= -.17131387E+05 EK= 0.29274E+04 SP= 0.00E+00 SK= 0.00E+00
     1610 T=  3226. E= -.14204035E+05 F= -.17146180E+05 EK= 0.29421E+04 SP= 0.00E+00 SK= 0.00E+00
     1620 T=  3214. E= -.14203983E+05 F= -.17135088E+05 EK= 0.29311E+04 SP= 0.00E+00 SK= 0.00E+00
     1630 T=  3217. E= -.14204031E+05 F= -.17137294E+05 EK= 0.29333E+04 SP= 0.00E+00 SK= 0.00E+00
     1640 T=  3222. E= -.14204025E+05 F= -.17142646E+05 EK= 0.29386E+04 SP= 0.00E+00 SK= 0.00E+00
     1650 T=  3195. E= -.14204023E+05 F= -.17117627E+05 EK= 0.29136E+04 SP= 0.00E+00 SK= 0.00E+00
     1660 T=  3175. E= -.14203993E+05 F= -.17099346E+05 EK= 0.28954E+04 SP= 0.00E+00 SK= 0.00E+00
     1670 T=  3178. E= -.14204040E+05 F= -.17102535E+05 EK= 0.28985E+04 SP= 0.00E+00 SK= 0.00E+00
     1680 T=  3187. E= -.14204014E+05 F= -.17110436E+05 EK= 0.29064E+04 SP= 0.00E+00 SK= 0.00E+00
     1690 T=  3175. E= -.14203953E+05 F= -.17099118E+05 EK= 0.28952E+04 SP= 0.00E+00 SK= 0.00E+00
     1700 T=  3183. E= -.14203963E+05 F= -.17106573E+05 EK= 0.29026E+04 SP= 0.00E+00 SK= 0.00E+00
     1710 T=  3180. E= -.14203973E+05 F= -.17104202E+05 EK= 0.29002E+04 SP= 0.00E+00 SK= 0.00E+00
     1720 T=  3170. E= -.14203945E+05 F= -.17094391E+05 EK= 0.28904E+04 SP= 0.00E+00 SK= 0.00E+00
     1730 T=  3164. E= -.14203977E+05 F= -.17089200E+05 EK= 0.28852E+04 SP= 0.00E+00 SK= 0.00E+00
     1740 T=  3139. E= -.14203969E+05 F= -.17066341E+05 EK= 0.28624E+04 SP= 0.00E+00 SK= 0.00E+00
     1750 T=  3136. E= -.14204012E+05 F= -.17064171E+05 EK= 0.28602E+04 SP= 0.00E+00 SK= 0.00E+00
     1760 T=  3135. E= -.14204058E+05 F= -.17062569E+05 EK= 0.28585E+04 SP= 0.00E+00 SK= 0.00E+00
     1770 T=  3119. E= -.14204026E+05 F= -.17048757E+05 EK= 0.28447E+04 SP= 0.00E+00 SK= 0.00E+00
     1780 T=  3123. E= -.14204057E+05 F= -.17052054E+05 EK= 0.28480E+04 SP= 0.00E+00 SK= 0.00E+00
     1790 T=  3126. E= -.14204019E+05 F= -.17055176E+05 EK= 0.28512E+04 SP= 0.00E+00 SK= 0.00E+00
     1800 T=  3129. E= -.14204010E+05 F= -.17057650E+05 EK= 0.28536E+04 SP= 0.00E+00 SK= 0.00E+00
     1810 T=  3130. E= -.14204013E+05 F= -.17058650E+05 EK= 0.28546E+04 SP= 0.00E+00 SK= 0.00E+00
     1820 T=  3113. E= -.14204023E+05 F= -.17043008E+05 EK= 0.28390E+04 SP= 0.00E+00 SK= 0.00E+00
     1830 T=  3094. E= -.14203990E+05 F= -.17025866E+05 EK= 0.28219E+04 SP= 0.00E+00 SK= 0.00E+00
     1840 T=  3105. E= -.14203973E+05 F= -.17035962E+05 EK= 0.28320E+04 SP= 0.00E+00 SK= 0.00E+00
     1850 T=  3113. E= -.14203979E+05 F= -.17042726E+05 EK= 0.28387E+04 SP= 0.00E+00 SK= 0.00E+00
     1860 T=  3109. E= -.14203947E+05 F= -.17038731E+05 EK= 0.28348E+04 SP= 0.00E+00 SK= 0.00E+00
     1870 T=  3108. E= -.14203988E+05 F= -.17038512E+05 EK= 0.28345E+04 SP= 0.00E+00 SK= 0.00E+00
     1880 T=  3087. E= -.14203941E+05 F= -.17019494E+05 EK= 0.28156E+04 SP= 0.00E+00 SK= 0.00E+00
     1890 T=  3058. E= -.14203912E+05 F= -.16992983E+05 EK= 0.27891E+04 SP= 0.00E+00 SK= 0.00E+00
     1900 T=  3057. E= -.14203938E+05 F= -.16991822E+05 EK= 0.27879E+04 SP= 0.00E+00 SK= 0.00E+00
     1910 T=  3051. E= -.14203915E+05 F= -.16986681E+05 EK= 0.27828E+04 SP= 0.00E+00 SK= 0.00E+00
     1920 T=  3047. E= -.14203902E+05 F= -.16982273E+05 EK= 0.27784E+04 SP= 0.00E+00 SK= 0.00E+00
     1930 T=  3035. E= -.14203909E+05 F= -.16971176E+05 EK= 0.27673E+04 SP= 0.00E+00 SK= 0.00E+00
     1940 T=  3030. E= -.14203903E+05 F= -.16967248E+05 EK= 0.27633E+04 SP= 0.00E+00 SK= 0.00E+00
     1950 T=  3030. E= -.14203865E+05 F= -.16967435E+05 EK= 0.27636E+04 SP= 0.00E+00 SK= 0.00E+00
     1960 T=  3026. E= -.14203879E+05 F= -.16962977E+05 EK= 0.27591E+04 SP= 0.00E+00 SK= 0.00E+00
     1970 T=  3015. E= -.14203872E+05 F= -.16953715E+05 EK= 0.27498E+04 SP= 0.00E+00 SK= 0.00E+00
     1980 T=  3011. E= -.14203915E+05 F= -.16949381E+05 EK= 0.27455E+04 SP= 0.00E+00 SK= 0.00E+00
     1990 T=  2996. E= -.14203876E+05 F= -.16936005E+05 EK= 0.27321E+04 SP= 0.00E+00 SK= 0.00E+00
At line 1940 of file md.f90
Fortran runtime error: Unit number is negative and unit was not already opened with OPEN(NEWUNIT=...)

Error termination. Backtrace:
At line 1940 of file md.f90
Fortran runtime error: Unit number is negative and unit was not already opened with OPEN(NEWUNIT=...)

Error termination. Backtrace:
At line 1940 of file md.f90
Fortran runtime error: Unit number is negative and unit was not already opened with OPEN(NEWUNIT=...)

Error termination. Backtrace:
At line 1940 of file md.f90
Fortran runtime error: Unit number is negative and unit was not already opened with OPEN(NEWUNIT=...)

Error termination. Backtrace:
At line 1940 of file md.f90
Fortran runtime error: Unit number is negative and unit was not already opened with OPEN(NEWUNIT=...)

Error termination. Backtrace:
     2000 T=  2996. E= -.14203888E+05 F= -.16936372E+05 EK= 0.27325E+04 SP= 0.00E+00 SK= 0.00E+00
Rc and Rl:   5.500000  7.321000

Average number of steps between two list updates:  18.02
Average number of atoms in the shell:     0.00
#0  0x7fbdf9de9d11 in ???
#1  0x7fbdf9dea859 in ???
#2  0x7fbdf9deb53f in ???
#3  0x56505fc170bc in ???
#4  0x56505fc1292e in ???
#5  0x7fbdf9a80082 in __libc_start_main
	at ../csu/libc-start.c:308
#6  0x56505fc1296d in ???
#7  0xffffffffffffffff in ???
#0  0x7faa5619cd11 in ???
#1  0x7faa5619d859 in ???
#2  0x7faa5619e53f in ???
#3  0x5555711750bc in ???
#4  0x55557117092e in ???
#5  0x7faa55e33082 in __libc_start_main
	at ../csu/libc-start.c:308
#6  0x55557117096d in ???
#7  0xffffffffffffffff in ???
