 running on    6 nodes
 distr:  one band on    1 nodes,    6 groups
 md.x 0.99
 POSCAR found :  1 types and     7056 ions
Rc and Rl:   5.500000  7.321000
 TIPO = eam     
 TIPO1 = uknown p
 Using EAM

 EAM parameters: 
 C  =   9.9634  EPS  = 0.2048  A  = 3.5678  M  = 3.127  N  =  6.366  R1 =   5.500000


 ----------------------------------------------------------------------------- 
|                                                                             |
|           W    W    AA    RRRRR   N    N  II  N    N   GGGG   !!!           |
|           W    W   A  A   R    R  NN   N  II  NN   N  G    G  !!!           |
|           W    W  A    A  R    R  N N  N  II  N N  N  G       !!!           |
|           W WW W  AAAAAA  RRRRR   N  N N  II  N  N N  G  GGG   !            |
|           WW  WW  A    A  R   R   N   NN  II  N   NN  G    G                |
|           W    W  A    A  R    R  N    N  II  N    N   GGGG   !!!           |
|                                                                             |
|      VASP found  21165 degrees of freedom                                   |
|      the temperature will equal 2*E(kin)/ (degrees of freedom)              |
|      this differs from previous releases, where T was 2*E(kin)/(3 NIONS).   |
|      The new definition is more consistent                                  |
|                                                                             |
 ----------------------------------------------------------------------------- 

 Random init:        6467       14038
 Random init:        6467       14038
 Random init:        6467       14038
 Random init:        6467       14038
 Random init:        6467       14038
 Random init:        6467       14038
 alloco spazio per displ
       10 T=  4368. E= -.27348302E+05 F= -.31331835E+05 EK= 0.39835E+04 SP= 0.00E+00 SK= 0.00E+00
       20 T=  4165. E= -.27347919E+05 F= -.31145841E+05 EK= 0.37979E+04 SP= 0.00E+00 SK= 0.00E+00
       30 T=  4150. E= -.27348188E+05 F= -.31132837E+05 EK= 0.37846E+04 SP= 0.00E+00 SK= 0.00E+00
       40 T=  4163. E= -.27348127E+05 F= -.31144629E+05 EK= 0.37965E+04 SP= 0.00E+00 SK= 0.00E+00
       50 T=  4191. E= -.27348180E+05 F= -.31170447E+05 EK= 0.38223E+04 SP= 0.00E+00 SK= 0.00E+00
       60 T=  4139. E= -.27347993E+05 F= -.31122335E+05 EK= 0.37743E+04 SP= 0.00E+00 SK= 0.00E+00
       70 T=  4145. E= -.27348119E+05 F= -.31127923E+05 EK= 0.37798E+04 SP= 0.00E+00 SK= 0.00E+00
       80 T=  4171. E= -.27348062E+05 F= -.31152188E+05 EK= 0.38041E+04 SP= 0.00E+00 SK= 0.00E+00
       90 T=  4201. E= -.27348053E+05 F= -.31178821E+05 EK= 0.38308E+04 SP= 0.00E+00 SK= 0.00E+00
      100 T=  4237. E= -.27348170E+05 F= -.31212377E+05 EK= 0.38642E+04 SP= 0.00E+00 SK= 0.00E+00
      110 T=  4223. E= -.27348009E+05 F= -.31199285E+05 EK= 0.38513E+04 SP= 0.00E+00 SK= 0.00E+00
      120 T=  4223. E= -.27348186E+05 F= -.31199519E+05 EK= 0.38513E+04 SP= 0.00E+00 SK= 0.00E+00
      130 T=  4159. E= -.27347967E+05 F= -.31140448E+05 EK= 0.37925E+04 SP= 0.00E+00 SK= 0.00E+00
      140 T=  4202. E= -.27348155E+05 F= -.31180262E+05 EK= 0.38321E+04 SP= 0.00E+00 SK= 0.00E+00
      150 T=  4179. E= -.27348095E+05 F= -.31159288E+05 EK= 0.38112E+04 SP= 0.00E+00 SK= 0.00E+00
      160 T=  4142. E= -.27348028E+05 F= -.31125057E+05 EK= 0.37770E+04 SP= 0.00E+00 SK= 0.00E+00
      170 T=  4193. E= -.27348107E+05 F= -.31171758E+05 EK= 0.38237E+04 SP= 0.00E+00 SK= 0.00E+00
      180 T=  4207. E= -.27348022E+05 F= -.31184381E+05 EK= 0.38364E+04 SP= 0.00E+00 SK= 0.00E+00
      190 T=  4155. E= -.27347957E+05 F= -.31136936E+05 EK= 0.37890E+04 SP= 0.00E+00 SK= 0.00E+00
      200 T=  4193. E= -.27348102E+05 F= -.31172004E+05 EK= 0.38239E+04 SP= 0.00E+00 SK= 0.00E+00
      210 T=  4225. E= -.27348037E+05 F= -.31201204E+05 EK= 0.38532E+04 SP= 0.00E+00 SK= 0.00E+00
      220 T=  4218. E= -.27348045E+05 F= -.31194231E+05 EK= 0.38462E+04 SP= 0.00E+00 SK= 0.00E+00
      230 T=  4192. E= -.27348010E+05 F= -.31171169E+05 EK= 0.38232E+04 SP= 0.00E+00 SK= 0.00E+00
      240 T=  4170. E= -.27348045E+05 F= -.31150811E+05 EK= 0.38028E+04 SP= 0.00E+00 SK= 0.00E+00
      250 T=  4194. E= -.27348052E+05 F= -.31172557E+05 EK= 0.38245E+04 SP= 0.00E+00 SK= 0.00E+00
      260 T=  4231. E= -.27348068E+05 F= -.31206686E+05 EK= 0.38586E+04 SP= 0.00E+00 SK= 0.00E+00
      270 T=  4199. E= -.27347955E+05 F= -.31177399E+05 EK= 0.38294E+04 SP= 0.00E+00 SK= 0.00E+00
      280 T=  4212. E= -.27347995E+05 F= -.31189103E+05 EK= 0.38411E+04 SP= 0.00E+00 SK= 0.00E+00
      290 T=  4235. E= -.27348084E+05 F= -.31209906E+05 EK= 0.38618E+04 SP= 0.00E+00 SK= 0.00E+00
      300 T=  4161. E= -.27347910E+05 F= -.31142583E+05 EK= 0.37947E+04 SP= 0.00E+00 SK= 0.00E+00
      310 T=  4169. E= -.27347966E+05 F= -.31149983E+05 EK= 0.38020E+04 SP= 0.00E+00 SK= 0.00E+00
      320 T=  4187. E= -.27348091E+05 F= -.31166741E+05 EK= 0.38187E+04 SP= 0.00E+00 SK= 0.00E+00
      330 T=  4169. E= -.27347924E+05 F= -.31149817E+05 EK= 0.38019E+04 SP= 0.00E+00 SK= 0.00E+00
      340 T=  4226. E= -.27348140E+05 F= -.31201655E+05 EK= 0.38535E+04 SP= 0.00E+00 SK= 0.00E+00
      350 T=  4149. E= -.27347974E+05 F= -.31131251E+05 EK= 0.37833E+04 SP= 0.00E+00 SK= 0.00E+00
      360 T=  4138. E= -.27347981E+05 F= -.31121149E+05 EK= 0.37732E+04 SP= 0.00E+00 SK= 0.00E+00
      370 T=  4181. E= -.27348050E+05 F= -.31161215E+05 EK= 0.38132E+04 SP= 0.00E+00 SK= 0.00E+00
      380 T=  4172. E= -.27348079E+05 F= -.31153052E+05 EK= 0.38050E+04 SP= 0.00E+00 SK= 0.00E+00
      390 T=  4132. E= -.27348135E+05 F= -.31116155E+05 EK= 0.37680E+04 SP= 0.00E+00 SK= 0.00E+00
      400 T=  4112. E= -.27348073E+05 F= -.31097857E+05 EK= 0.37498E+04 SP= 0.00E+00 SK= 0.00E+00
      410 T=  4168. E= -.27348226E+05 F= -.31149502E+05 EK= 0.38013E+04 SP= 0.00E+00 SK= 0.00E+00
      420 T=  4130. E= -.27348020E+05 F= -.31114045E+05 EK= 0.37660E+04 SP= 0.00E+00 SK= 0.00E+00
      430 T=  4167. E= -.27348228E+05 F= -.31148376E+05 EK= 0.38001E+04 SP= 0.00E+00 SK= 0.00E+00
      440 T=  4185. E= -.27348202E+05 F= -.31164336E+05 EK= 0.38161E+04 SP= 0.00E+00 SK= 0.00E+00
      450 T=  4198. E= -.27348299E+05 F= -.31176770E+05 EK= 0.38285E+04 SP= 0.00E+00 SK= 0.00E+00
      460 T=  4181. E= -.27348156E+05 F= -.31160680E+05 EK= 0.38125E+04 SP= 0.00E+00 SK= 0.00E+00
      470 T=  4226. E= -.27348353E+05 F= -.31202226E+05 EK= 0.38539E+04 SP= 0.00E+00 SK= 0.00E+00
      480 T=  4136. E= -.27348154E+05 F= -.31119566E+05 EK= 0.37714E+04 SP= 0.00E+00 SK= 0.00E+00
      490 T=  4097. E= -.27348168E+05 F= -.31084582E+05 EK= 0.37364E+04 SP= 0.00E+00 SK= 0.00E+00
      500 T=  4099. E= -.27348211E+05 F= -.31086411E+05 EK= 0.37382E+04 SP= 0.00E+00 SK= 0.00E+00
      510 T=  4082. E= -.27348115E+05 F= -.31070953E+05 EK= 0.37228E+04 SP= 0.00E+00 SK= 0.00E+00
      520 T=  4151. E= -.27348297E+05 F= -.31134112E+05 EK= 0.37858E+04 SP= 0.00E+00 SK= 0.00E+00
      530 T=  4172. E= -.27348254E+05 F= -.31152687E+05 EK= 0.38044E+04 SP= 0.00E+00 SK= 0.00E+00
      540 T=  4168. E= -.27348258E+05 F= -.31148832E+05 EK= 0.38006E+04 SP= 0.00E+00 SK= 0.00E+00
      550 T=  4126. E= -.27348260E+05 F= -.31110940E+05 EK= 0.37627E+04 SP= 0.00E+00 SK= 0.00E+00
      560 T=  4132. E= -.27348331E+05 F= -.31115999E+05 EK= 0.37677E+04 SP= 0.00E+00 SK= 0.00E+00
      570 T=  4153. E= -.27348250E+05 F= -.31135426E+05 EK= 0.37872E+04 SP= 0.00E+00 SK= 0.00E+00
      580 T=  4133. E= -.27348287E+05 F= -.31117517E+05 EK= 0.37692E+04 SP= 0.00E+00 SK= 0.00E+00
      590 T=  4125. E= -.27348325E+05 F= -.31109923E+05 EK= 0.37616E+04 SP= 0.00E+00 SK= 0.00E+00
      600 T=  4138. E= -.27348294E+05 F= -.31121561E+05 EK= 0.37733E+04 SP= 0.00E+00 SK= 0.00E+00
      610 T=  4118. E= -.27348229E+05 F= -.31103813E+05 EK= 0.37556E+04 SP= 0.00E+00 SK= 0.00E+00
      620 T=  4127. E= -.27348273E+05 F= -.31112069E+05 EK= 0.37638E+04 SP= 0.00E+00 SK= 0.00E+00
      630 T=  4144. E= -.27348221E+05 F= -.31126961E+05 EK= 0.37787E+04 SP= 0.00E+00 SK= 0.00E+00
      640 T=  4149. E= -.27348251E+05 F= -.31131692E+05 EK= 0.37834E+04 SP= 0.00E+00 SK= 0.00E+00
      650 T=  4124. E= -.27348128E+05 F= -.31109260E+05 EK= 0.37611E+04 SP= 0.00E+00 SK= 0.00E+00
      660 T=  4128. E= -.27348169E+05 F= -.31112248E+05 EK= 0.37641E+04 SP= 0.00E+00 SK= 0.00E+00
      670 T=  4079. E= -.27348104E+05 F= -.31067701E+05 EK= 0.37196E+04 SP= 0.00E+00 SK= 0.00E+00
      680 T=  4109. E= -.27348086E+05 F= -.31095130E+05 EK= 0.37470E+04 SP= 0.00E+00 SK= 0.00E+00
      690 T=  4146. E= -.27348223E+05 F= -.31129209E+05 EK= 0.37810E+04 SP= 0.00E+00 SK= 0.00E+00
      700 T=  4084. E= -.27348132E+05 F= -.31072287E+05 EK= 0.37242E+04 SP= 0.00E+00 SK= 0.00E+00
      710 T=  4050. E= -.27348087E+05 F= -.31040974E+05 EK= 0.36929E+04 SP= 0.00E+00 SK= 0.00E+00
      720 T=  4105. E= -.27348268E+05 F= -.31091450E+05 EK= 0.37432E+04 SP= 0.00E+00 SK= 0.00E+00
      730 T=  4116. E= -.27348267E+05 F= -.31101842E+05 EK= 0.37536E+04 SP= 0.00E+00 SK= 0.00E+00
      740 T=  4101. E= -.27348215E+05 F= -.31087964E+05 EK= 0.37397E+04 SP= 0.00E+00 SK= 0.00E+00
      750 T=  4166. E= -.27348378E+05 F= -.31147861E+05 EK= 0.37995E+04 SP= 0.00E+00 SK= 0.00E+00
      760 T=  4112. E= -.27348364E+05 F= -.31098105E+05 EK= 0.37497E+04 SP= 0.00E+00 SK= 0.00E+00
      770 T=  4069. E= -.27348226E+05 F= -.31058454E+05 EK= 0.37102E+04 SP= 0.00E+00 SK= 0.00E+00
      780 T=  4138. E= -.27348417E+05 F= -.31122056E+05 EK= 0.37736E+04 SP= 0.00E+00 SK= 0.00E+00
      790 T=  4073. E= -.27348231E+05 F= -.31062238E+05 EK= 0.37140E+04 SP= 0.00E+00 SK= 0.00E+00
      800 T=  4051. E= -.27348321E+05 F= -.31042228E+05 EK= 0.36939E+04 SP= 0.00E+00 SK= 0.00E+00
      810 T=  4080. E= -.27348344E+05 F= -.31068848E+05 EK= 0.37205E+04 SP= 0.00E+00 SK= 0.00E+00
      820 T=  4109. E= -.27348435E+05 F= -.31095890E+05 EK= 0.37475E+04 SP= 0.00E+00 SK= 0.00E+00
      830 T=  4107. E= -.27348307E+05 F= -.31093755E+05 EK= 0.37454E+04 SP= 0.00E+00 SK= 0.00E+00
      840 T=  4166. E= -.27348419E+05 F= -.31147848E+05 EK= 0.37994E+04 SP= 0.00E+00 SK= 0.00E+00
      850 T=  4175. E= -.27348502E+05 F= -.31155706E+05 EK= 0.38072E+04 SP= 0.00E+00 SK= 0.00E+00
      860 T=  4099. E= -.27348237E+05 F= -.31086290E+05 EK= 0.37381E+04 SP= 0.00E+00 SK= 0.00E+00
      870 T=  4180. E= -.27348504E+05 F= -.31160819E+05 EK= 0.38123E+04 SP= 0.00E+00 SK= 0.00E+00
      880 T=  4132. E= -.27348299E+05 F= -.31115979E+05 EK= 0.37677E+04 SP= 0.00E+00 SK= 0.00E+00
      890 T=  4086. E= -.27348409E+05 F= -.31074793E+05 EK= 0.37264E+04 SP= 0.00E+00 SK= 0.00E+00
      900 T=  4058. E= -.27348410E+05 F= -.31049236E+05 EK= 0.37008E+04 SP= 0.00E+00 SK= 0.00E+00
      910 T=  4103. E= -.27348441E+05 F= -.31089763E+05 EK= 0.37413E+04 SP= 0.00E+00 SK= 0.00E+00
      920 T=  4156. E= -.27348524E+05 F= -.31138347E+05 EK= 0.37898E+04 SP= 0.00E+00 SK= 0.00E+00
      930 T=  4120. E= -.27348438E+05 F= -.31105514E+05 EK= 0.37571E+04 SP= 0.00E+00 SK= 0.00E+00
      940 T=  4109. E= -.27348454E+05 F= -.31095731E+05 EK= 0.37473E+04 SP= 0.00E+00 SK= 0.00E+00
      950 T=  4157. E= -.27348534E+05 F= -.31139678E+05 EK= 0.37911E+04 SP= 0.00E+00 SK= 0.00E+00
      960 T=  4162. E= -.27348534E+05 F= -.31144133E+05 EK= 0.37956E+04 SP= 0.00E+00 SK= 0.00E+00
      970 T=  4116. E= -.27348501E+05 F= -.31101909E+05 EK= 0.37534E+04 SP= 0.00E+00 SK= 0.00E+00
      980 T=  4080. E= -.27348451E+05 F= -.31068720E+05 EK= 0.37203E+04 SP= 0.00E+00 SK= 0.00E+00
      990 T=  4130. E= -.27348669E+05 F= -.31115098E+05 EK= 0.37664E+04 SP= 0.00E+00 SK= 0.00E+00
     1000 T=  4134. E= -.27348623E+05 F= -.31118309E+05 EK= 0.37697E+04 SP= 0.00E+00 SK= 0.00E+00
     1010 T=  4090. E= -.27348612E+05 F= -.31078563E+05 EK= 0.37300E+04 SP= 0.00E+00 SK= 0.00E+00
     1020 T=  4085. E= -.27348629E+05 F= -.31073991E+05 EK= 0.37254E+04 SP= 0.00E+00 SK= 0.00E+00
     1030 T=  4111. E= -.27348597E+05 F= -.31097387E+05 EK= 0.37488E+04 SP= 0.00E+00 SK= 0.00E+00
     1040 T=  4152. E= -.27348687E+05 F= -.31134700E+05 EK= 0.37860E+04 SP= 0.00E+00 SK= 0.00E+00
     1050 T=  4161. E= -.27348689E+05 F= -.31143572E+05 EK= 0.37949E+04 SP= 0.00E+00 SK= 0.00E+00
     1060 T=  4125. E= -.27348599E+05 F= -.31109966E+05 EK= 0.37614E+04 SP= 0.00E+00 SK= 0.00E+00
     1070 T=  4117. E= -.27348660E+05 F= -.31102932E+05 EK= 0.37543E+04 SP= 0.00E+00 SK= 0.00E+00
     1080 T=  4145. E= -.27348700E+05 F= -.31128497E+05 EK= 0.37798E+04 SP= 0.00E+00 SK= 0.00E+00
     1090 T=  4113. E= -.27348685E+05 F= -.31099906E+05 EK= 0.37512E+04 SP= 0.00E+00 SK= 0.00E+00
     1100 T=  4117. E= -.27348707E+05 F= -.31102936E+05 EK= 0.37542E+04 SP= 0.00E+00 SK= 0.00E+00
     1110 T=  4136. E= -.27348766E+05 F= -.31120509E+05 EK= 0.37717E+04 SP= 0.00E+00 SK= 0.00E+00
     1120 T=  4128. E= -.27348655E+05 F= -.31113201E+05 EK= 0.37645E+04 SP= 0.00E+00 SK= 0.00E+00
     1130 T=  4143. E= -.27348678E+05 F= -.31127086E+05 EK= 0.37784E+04 SP= 0.00E+00 SK= 0.00E+00
     1140 T=  4131. E= -.27348758E+05 F= -.31115865E+05 EK= 0.37671E+04 SP= 0.00E+00 SK= 0.00E+00
     1150 T=  4075. E= -.27348614E+05 F= -.31064987E+05 EK= 0.37164E+04 SP= 0.00E+00 SK= 0.00E+00
     1160 T=  4107. E= -.27348695E+05 F= -.31093862E+05 EK= 0.37452E+04 SP= 0.00E+00 SK= 0.00E+00
     1170 T=  4104. E= -.27348635E+05 F= -.31090971E+05 EK= 0.37423E+04 SP= 0.00E+00 SK= 0.00E+00
     1180 T=  4102. E= -.27348640E+05 F= -.31089236E+05 EK= 0.37406E+04 SP= 0.00E+00 SK= 0.00E+00
     1190 T=  4079. E= -.27348647E+05 F= -.31068537E+05 EK= 0.37199E+04 SP= 0.00E+00 SK= 0.00E+00
     1200 T=  4064. E= -.27348671E+05 F= -.31054956E+05 EK= 0.37063E+04 SP= 0.00E+00 SK= 0.00E+00
     1210 T=  4100. E= -.27348664E+05 F= -.31087741E+05 EK= 0.37391E+04 SP= 0.00E+00 SK= 0.00E+00
     1220 T=  4127. E= -.27348671E+05 F= -.31112432E+05 EK= 0.37638E+04 SP= 0.00E+00 SK= 0.00E+00
     1230 T=  4089. E= -.27348572E+05 F= -.31077772E+05 EK= 0.37292E+04 SP= 0.00E+00 SK= 0.00E+00
     1240 T=  4082. E= -.27348645E+05 F= -.31070988E+05 EK= 0.37223E+04 SP= 0.00E+00 SK= 0.00E+00
     1250 T=  4094. E= -.27348659E+05 F= -.31081909E+05 EK= 0.37332E+04 SP= 0.00E+00 SK= 0.00E+00
     1260 T=  4111. E= -.27348673E+05 F= -.31097869E+05 EK= 0.37492E+04 SP= 0.00E+00 SK= 0.00E+00
     1270 T=  4058. E= -.27348551E+05 F= -.31049546E+05 EK= 0.37010E+04 SP= 0.00E+00 SK= 0.00E+00
     1280 T=  4091. E= -.27348674E+05 F= -.31079591E+05 EK= 0.37309E+04 SP= 0.00E+00 SK= 0.00E+00
     1290 T=  4089. E= -.27348648E+05 F= -.31077568E+05 EK= 0.37289E+04 SP= 0.00E+00 SK= 0.00E+00
     1300 T=  4054. E= -.27348583E+05 F= -.31045823E+05 EK= 0.36972E+04 SP= 0.00E+00 SK= 0.00E+00
     1310 T=  4078. E= -.27348522E+05 F= -.31067531E+05 EK= 0.37190E+04 SP= 0.00E+00 SK= 0.00E+00
     1320 T=  4091. E= -.27348532E+05 F= -.31079380E+05 EK= 0.37308E+04 SP= 0.00E+00 SK= 0.00E+00
     1330 T=  4068. E= -.27348426E+05 F= -.31058419E+05 EK= 0.37100E+04 SP= 0.00E+00 SK= 0.00E+00
     1340 T=  4053. E= -.27348369E+05 F= -.31044560E+05 EK= 0.36962E+04 SP= 0.00E+00 SK= 0.00E+00
     1350 T=  4081. E= -.27348352E+05 F= -.31070263E+05 EK= 0.37219E+04 SP= 0.00E+00 SK= 0.00E+00
     1360 T=  4127. E= -.27348490E+05 F= -.31111624E+05 EK= 0.37631E+04 SP= 0.00E+00 SK= 0.00E+00
     1370 T=  4067. E= -.27348292E+05 F= -.31056721E+05 EK= 0.37084E+04 SP= 0.00E+00 SK= 0.00E+00
     1380 T=  4090. E= -.27348292E+05 F= -.31078309E+05 EK= 0.37300E+04 SP= 0.00E+00 SK= 0.00E+00
     1390 T=  4132. E= -.27348409E+05 F= -.31116077E+05 EK= 0.37677E+04 SP= 0.00E+00 SK= 0.00E+00
     1400 T=  4088. E= -.27348272E+05 F= -.31076403E+05 EK= 0.37281E+04 SP= 0.00E+00 SK= 0.00E+00
     1410 T=  4083. E= -.27348308E+05 F= -.31071658E+05 EK= 0.37234E+04 SP= 0.00E+00 SK= 0.00E+00
     1420 T=  4075. E= -.27348308E+05 F= -.31064371E+05 EK= 0.37161E+04 SP= 0.00E+00 SK= 0.00E+00
     1430 T=  4040. E= -.27348282E+05 F= -.31032085E+05 EK= 0.36838E+04 SP= 0.00E+00 SK= 0.00E+00
     1440 T=  4032. E= -.27348238E+05 F= -.31024753E+05 EK= 0.36765E+04 SP= 0.00E+00 SK= 0.00E+00
     1450 T=  4084. E= -.27348297E+05 F= -.31072274E+05 EK= 0.37240E+04 SP= 0.00E+00 SK= 0.00E+00
     1460 T=  4091. E= -.27348268E+05 F= -.31079031E+05 EK= 0.37308E+04 SP= 0.00E+00 SK= 0.00E+00
     1470 T=  4026. E= -.27348211E+05 F= -.31019807E+05 EK= 0.36716E+04 SP= 0.00E+00 SK= 0.00E+00
     1480 T=  4049. E= -.27348405E+05 F= -.31040508E+05 EK= 0.36921E+04 SP= 0.00E+00 SK= 0.00E+00
     1490 T=  4070. E= -.27348376E+05 F= -.31059952E+05 EK= 0.37116E+04 SP= 0.00E+00 SK= 0.00E+00
     1500 T=  4065. E= -.27348405E+05 F= -.31055531E+05 EK= 0.37071E+04 SP= 0.00E+00 SK= 0.00E+00
     1510 T=  4040. E= -.27348257E+05 F= -.31032897E+05 EK= 0.36846E+04 SP= 0.00E+00 SK= 0.00E+00
     1520 T=  4064. E= -.27348333E+05 F= -.31054313E+05 EK= 0.37060E+04 SP= 0.00E+00 SK= 0.00E+00
     1530 T=  4068. E= -.27348244E+05 F= -.31057551E+05 EK= 0.37093E+04 SP= 0.00E+00 SK= 0.00E+00
     1540 T=  4084. E= -.27348298E+05 F= -.31072687E+05 EK= 0.37244E+04 SP= 0.00E+00 SK= 0.00E+00
     1550 T=  4070. E= -.27348232E+05 F= -.31059822E+05 EK= 0.37116E+04 SP= 0.00E+00 SK= 0.00E+00
     1560 T=  4084. E= -.27348264E+05 F= -.31072221E+05 EK= 0.37240E+04 SP= 0.00E+00 SK= 0.00E+00
     1570 T=  4049. E= -.27348103E+05 F= -.31040866E+05 EK= 0.36928E+04 SP= 0.00E+00 SK= 0.00E+00
     1580 T=  4064. E= -.27348204E+05 F= -.31054067E+05 EK= 0.37059E+04 SP= 0.00E+00 SK= 0.00E+00
     1590 T=  4043. E= -.27348236E+05 F= -.31035619E+05 EK= 0.36874E+04 SP= 0.00E+00 SK= 0.00E+00
     1600 T=  3994. E= -.27348165E+05 F= -.30990020E+05 EK= 0.36419E+04 SP= 0.00E+00 SK= 0.00E+00
     1610 T=  4059. E= -.27348303E+05 F= -.31049835E+05 EK= 0.37015E+04 SP= 0.00E+00 SK= 0.00E+00
     1620 T=  4074. E= -.27348227E+05 F= -.31063175E+05 EK= 0.37149E+04 SP= 0.00E+00 SK= 0.00E+00
     1630 T=  4070. E= -.27348284E+05 F= -.31060009E+05 EK= 0.37117E+04 SP= 0.00E+00 SK= 0.00E+00
     1640 T=  4085. E= -.27348215E+05 F= -.31073389E+05 EK= 0.37252E+04 SP= 0.00E+00 SK= 0.00E+00
     1650 T=  4089. E= -.27348245E+05 F= -.31077488E+05 EK= 0.37292E+04 SP= 0.00E+00 SK= 0.00E+00
     1660 T=  4061. E= -.27348167E+05 F= -.31051116E+05 EK= 0.37029E+04 SP= 0.00E+00 SK= 0.00E+00
     1670 T=  4077. E= -.27348219E+05 F= -.31066118E+05 EK= 0.37179E+04 SP= 0.00E+00 SK= 0.00E+00
     1680 T=  4064. E= -.27348175E+05 F= -.31054358E+05 EK= 0.37062E+04 SP= 0.00E+00 SK= 0.00E+00
     1690 T=  4034. E= -.27348085E+05 F= -.31026590E+05 EK= 0.36785E+04 SP= 0.00E+00 SK= 0.00E+00
     1700 T=  4007. E= -.27348024E+05 F= -.31002289E+05 EK= 0.36543E+04 SP= 0.00E+00 SK= 0.00E+00
     1710 T=  4052. E= -.27348132E+05 F= -.31043250E+05 EK= 0.36951E+04 SP= 0.00E+00 SK= 0.00E+00
     1720 T=  4093. E= -.27348167E+05 F= -.31081144E+05 EK= 0.37330E+04 SP= 0.00E+00 SK= 0.00E+00
     1730 T=  4121. E= -.27348236E+05 F= -.31106580E+05 EK= 0.37583E+04 SP= 0.00E+00 SK= 0.00E+00
     1740 T=  4094. E= -.27348206E+05 F= -.31081677E+05 EK= 0.37335E+04 SP= 0.00E+00 SK= 0.00E+00
     1750 T=  4074. E= -.27348243E+05 F= -.31063356E+05 EK= 0.37151E+04 SP= 0.00E+00 SK= 0.00E+00
     1760 T=  4053. E= -.27348116E+05 F= -.31043971E+05 EK= 0.36959E+04 SP= 0.00E+00 SK= 0.00E+00
     1770 T=  4067. E= -.27348236E+05 F= -.31057178E+05 EK= 0.37089E+04 SP= 0.00E+00 SK= 0.00E+00
     1780 T=  4003. E= -.27347986E+05 F= -.30998563E+05 EK= 0.36506E+04 SP= 0.00E+00 SK= 0.00E+00
     1790 T=  4068. E= -.27348193E+05 F= -.31058330E+05 EK= 0.37101E+04 SP= 0.00E+00 SK= 0.00E+00
     1800 T=  4033. E= -.27348001E+05 F= -.31025826E+05 EK= 0.36778E+04 SP= 0.00E+00 SK= 0.00E+00
     1810 T=  4015. E= -.27348124E+05 F= -.31009454E+05 EK= 0.36613E+04 SP= 0.00E+00 SK= 0.00E+00
     1820 T=  3997. E= -.27347979E+05 F= -.30993041E+05 EK= 0.36451E+04 SP= 0.00E+00 SK= 0.00E+00
     1830 T=  4047. E= -.27348045E+05 F= -.31038699E+05 EK= 0.36907E+04 SP= 0.00E+00 SK= 0.00E+00
     1840 T=  4059. E= -.27348060E+05 F= -.31049911E+05 EK= 0.37019E+04 SP= 0.00E+00 SK= 0.00E+00
     1850 T=  4034. E= -.27347963E+05 F= -.31026885E+05 EK= 0.36789E+04 SP= 0.00E+00 SK= 0.00E+00
     1860 T=  4038. E= -.27347932E+05 F= -.31030576E+05 EK= 0.36826E+04 SP= 0.00E+00 SK= 0.00E+00
     1870 T=  4043. E= -.27347924E+05 F= -.31035281E+05 EK= 0.36874E+04 SP= 0.00E+00 SK= 0.00E+00
     1880 T=  3997. E= -.27347844E+05 F= -.30992605E+05 EK= 0.36448E+04 SP= 0.00E+00 SK= 0.00E+00
     1890 T=  4000. E= -.27347785E+05 F= -.30995512E+05 EK= 0.36477E+04 SP= 0.00E+00 SK= 0.00E+00
     1900 T=  4093. E= -.27347899E+05 F= -.31080389E+05 EK= 0.37325E+04 SP= 0.00E+00 SK= 0.00E+00
     1910 T=  4099. E= -.27347894E+05 F= -.31086195E+05 EK= 0.37383E+04 SP= 0.00E+00 SK= 0.00E+00
     1920 T=  4056. E= -.27347842E+05 F= -.31046768E+05 EK= 0.36989E+04 SP= 0.00E+00 SK= 0.00E+00
     1930 T=  4039. E= -.27347738E+05 F= -.31030845E+05 EK= 0.36831E+04 SP= 0.00E+00 SK= 0.00E+00
     1940 T=  4047. E= -.27347801E+05 F= -.31038666E+05 EK= 0.36909E+04 SP= 0.00E+00 SK= 0.00E+00
     1950 T=  4021. E= -.27347788E+05 F= -.31014293E+05 EK= 0.36665E+04 SP= 0.00E+00 SK= 0.00E+00
     1960 T=  3994. E= -.27347708E+05 F= -.30989917E+05 EK= 0.36422E+04 SP= 0.00E+00 SK= 0.00E+00
     1970 T=  4009. E= -.27347785E+05 F= -.31004186E+05 EK= 0.36564E+04 SP= 0.00E+00 SK= 0.00E+00
     1980 T=  4007. E= -.27347751E+05 F= -.31001828E+05 EK= 0.36541E+04 SP= 0.00E+00 SK= 0.00E+00
     1990 T=  4026. E= -.27347762E+05 F= -.31019151E+05 EK= 0.36714E+04 SP= 0.00E+00 SK= 0.00E+00
At line 1940 of file md.f90
Fortran runtime error: Unit number is negative and unit was not already opened with OPEN(NEWUNIT=...)

Error termination. Backtrace:
At line 1940 of file md.f90
Fortran runtime error: Unit number is negative and unit was not already opened with OPEN(NEWUNIT=...)

Error termination. Backtrace:
At line 1940 of file md.f90
Fortran runtime error: Unit number is negative and unit was not already opened with OPEN(NEWUNIT=...)

Error termination. Backtrace:
At line 1940 of file md.f90
Fortran runtime error: Unit number is negative and unit was not already opened with OPEN(NEWUNIT=...)

Error termination. Backtrace:
At line 1940 of file md.f90
Fortran runtime error: Unit number is negative and unit was not already opened with OPEN(NEWUNIT=...)

Error termination. Backtrace:
     2000 T=  4018. E= -.27347641E+05 F= -.31011491E+05 EK= 0.36638E+04 SP= 0.00E+00 SK= 0.00E+00
Rc and Rl:   5.500000  7.321000

Average number of steps between two list updates:  18.87
Average number of atoms in the shell:     0.01
#0  0x7fc4b57ead11 in ???
#1  0x7fc4b57eb859 in ???
#2  0x7fc4b57ec53f in ???
#3  0x55ad7a8260bc in ???
#4  0x55ad7a82192e in ???
#5  0x7fc4b5481082 in __libc_start_main
	at ../csu/libc-start.c:308
#6  0x55ad7a82196d in ???
#7  0xffffffffffffffff in ???
#0  0x7fb8e71a6d11 in ???
#1  0x7fb8e71a7859 in ???
#2  0x7fb8e71a853f in ???
#3  0x55620c4cb0bc in ???
#4  0x55620c4c692e in ???
#5  0x7fb8e6e3d082 in __libc_start_main
	at ../csu/libc-start.c:308
#6  0x55620c4c696d in ???
#7  0xffffffffffffffff in ???
#0  0x7fd257fe0d11 in ???
#1  0x7fd257fe1859 in ???
#2  0x7fd257fe253f in ???
#3  0x56191579e0bc in ???
#4  0x56191579992e in ???
#5  0x7fd257c77082 in __libc_start_main
	at ../csu/libc-start.c:308
#6  0x56191579996d in ???
#7  0xffffffffffffffff in ???
#0  0x7f8638189d11 in ???
#1  0x7f863818a859 in ???
#2  0x7f863818b53f in ???
#3  0x5555b8af10bc in ???
#4  0x5555b8aec92e in ???
#5  0x7f8637e20082 in __libc_start_main
	at ../csu/libc-start.c:308
#6  0x5555b8aec96d in ???
#7  0xffffffffffffffff in ???
