 running on    6 nodes
 distr:  one band on    1 nodes,    6 groups
 md.x 0.99
 POSCAR found :  1 types and     7056 ions
Rc and Rl:   5.500000  7.321000
 TIPO = eam     
 TIPO1 = uknown p
 Using EAM

 EAM parameters: 
 C  =   9.9634  EPS  = 0.2048  A  = 3.5678  M  = 3.127  N  =  6.366  R1 =   5.500000


 ----------------------------------------------------------------------------- 
|                                                                             |
|           W    W    AA    RRRRR   N    N  II  N    N   GGGG   !!!           |
|           W    W   A  A   R    R  NN   N  II  NN   N  G    G  !!!           |
|           W    W  A    A  R    R  N N  N  II  N N  N  G       !!!           |
|           W WW W  AAAAAA  RRRRR   N  N N  II  N  N N  G  GGG   !            |
|           WW  WW  A    A  R   R   N   NN  II  N   NN  G    G                |
|           W    W  A    A  R    R  N    N  II  N    N   GGGG   !!!           |
|                                                                             |
|      VASP found  21165 degrees of freedom                                   |
|      the temperature will equal 2*E(kin)/ (degrees of freedom)              |
|      this differs from previous releases, where T was 2*E(kin)/(3 NIONS).   |
|      The new definition is more consistent                                  |
|                                                                             |
 ----------------------------------------------------------------------------- 

 Random init:       13732       21303
 Random init:       13732       21303
 Random init:       13732       21303
 Random init:       13732       21303
 Random init:       13732       21303
 Random init:       13732       21303
 alloco spazio per displ
       10 T=  4377. E= -.27188773E+05 F= -.31180695E+05 EK= 0.39919E+04 SP= 0.00E+00 SK= 0.00E+00
       20 T=  4268. E= -.27188425E+05 F= -.31080744E+05 EK= 0.38923E+04 SP= 0.00E+00 SK= 0.00E+00
       30 T=  4258. E= -.27188602E+05 F= -.31071392E+05 EK= 0.38828E+04 SP= 0.00E+00 SK= 0.00E+00
       40 T=  4251. E= -.27188599E+05 F= -.31064793E+05 EK= 0.38762E+04 SP= 0.00E+00 SK= 0.00E+00
       50 T=  4292. E= -.27188626E+05 F= -.31103015E+05 EK= 0.39144E+04 SP= 0.00E+00 SK= 0.00E+00
       60 T=  4315. E= -.27188674E+05 F= -.31123419E+05 EK= 0.39347E+04 SP= 0.00E+00 SK= 0.00E+00
       70 T=  4266. E= -.27188565E+05 F= -.31078533E+05 EK= 0.38900E+04 SP= 0.00E+00 SK= 0.00E+00
       80 T=  4252. E= -.27188583E+05 F= -.31066377E+05 EK= 0.38778E+04 SP= 0.00E+00 SK= 0.00E+00
       90 T=  4259. E= -.27188576E+05 F= -.31072378E+05 EK= 0.38838E+04 SP= 0.00E+00 SK= 0.00E+00
      100 T=  4244. E= -.27188519E+05 F= -.31058369E+05 EK= 0.38699E+04 SP= 0.00E+00 SK= 0.00E+00
      110 T=  4249. E= -.27188571E+05 F= -.31062956E+05 EK= 0.38744E+04 SP= 0.00E+00 SK= 0.00E+00
      120 T=  4257. E= -.27188542E+05 F= -.31070664E+05 EK= 0.38821E+04 SP= 0.00E+00 SK= 0.00E+00
      130 T=  4276. E= -.27188616E+05 F= -.31087716E+05 EK= 0.38991E+04 SP= 0.00E+00 SK= 0.00E+00
      140 T=  4250. E= -.27188594E+05 F= -.31063960E+05 EK= 0.38754E+04 SP= 0.00E+00 SK= 0.00E+00
      150 T=  4246. E= -.27188655E+05 F= -.31060437E+05 EK= 0.38718E+04 SP= 0.00E+00 SK= 0.00E+00
      160 T=  4273. E= -.27188640E+05 F= -.31084882E+05 EK= 0.38962E+04 SP= 0.00E+00 SK= 0.00E+00
      170 T=  4282. E= -.27188637E+05 F= -.31093545E+05 EK= 0.39049E+04 SP= 0.00E+00 SK= 0.00E+00
      180 T=  4257. E= -.27188560E+05 F= -.31070618E+05 EK= 0.38821E+04 SP= 0.00E+00 SK= 0.00E+00
      190 T=  4239. E= -.27188521E+05 F= -.31053868E+05 EK= 0.38653E+04 SP= 0.00E+00 SK= 0.00E+00
      200 T=  4302. E= -.27188649E+05 F= -.31111700E+05 EK= 0.39231E+04 SP= 0.00E+00 SK= 0.00E+00
      210 T=  4251. E= -.27188464E+05 F= -.31065254E+05 EK= 0.38768E+04 SP= 0.00E+00 SK= 0.00E+00
      220 T=  4266. E= -.27188591E+05 F= -.31079146E+05 EK= 0.38906E+04 SP= 0.00E+00 SK= 0.00E+00
      230 T=  4257. E= -.27188511E+05 F= -.31070318E+05 EK= 0.38818E+04 SP= 0.00E+00 SK= 0.00E+00
      240 T=  4312. E= -.27188544E+05 F= -.31120435E+05 EK= 0.39319E+04 SP= 0.00E+00 SK= 0.00E+00
      250 T=  4380. E= -.27188584E+05 F= -.31182749E+05 EK= 0.39942E+04 SP= 0.00E+00 SK= 0.00E+00
      260 T=  4351. E= -.27188644E+05 F= -.31156910E+05 EK= 0.39683E+04 SP= 0.00E+00 SK= 0.00E+00
      270 T=  4254. E= -.27188507E+05 F= -.31068276E+05 EK= 0.38798E+04 SP= 0.00E+00 SK= 0.00E+00
      280 T=  4250. E= -.27188646E+05 F= -.31064142E+05 EK= 0.38755E+04 SP= 0.00E+00 SK= 0.00E+00
      290 T=  4256. E= -.27188565E+05 F= -.31070125E+05 EK= 0.38816E+04 SP= 0.00E+00 SK= 0.00E+00
      300 T=  4291. E= -.27188684E+05 F= -.31101912E+05 EK= 0.39132E+04 SP= 0.00E+00 SK= 0.00E+00
      310 T=  4277. E= -.27188630E+05 F= -.31088520E+05 EK= 0.38999E+04 SP= 0.00E+00 SK= 0.00E+00
      320 T=  4243. E= -.27188682E+05 F= -.31057773E+05 EK= 0.38691E+04 SP= 0.00E+00 SK= 0.00E+00
      330 T=  4206. E= -.27188663E+05 F= -.31024561E+05 EK= 0.38359E+04 SP= 0.00E+00 SK= 0.00E+00
      340 T=  4235. E= -.27188680E+05 F= -.31050279E+05 EK= 0.38616E+04 SP= 0.00E+00 SK= 0.00E+00
      350 T=  4237. E= -.27188604E+05 F= -.31052414E+05 EK= 0.38638E+04 SP= 0.00E+00 SK= 0.00E+00
      360 T=  4283. E= -.27188658E+05 F= -.31094418E+05 EK= 0.39058E+04 SP= 0.00E+00 SK= 0.00E+00
      370 T=  4276. E= -.27188700E+05 F= -.31088452E+05 EK= 0.38998E+04 SP= 0.00E+00 SK= 0.00E+00
      380 T=  4223. E= -.27188678E+05 F= -.31039750E+05 EK= 0.38511E+04 SP= 0.00E+00 SK= 0.00E+00
      390 T=  4199. E= -.27188599E+05 F= -.31017670E+05 EK= 0.38291E+04 SP= 0.00E+00 SK= 0.00E+00
      400 T=  4266. E= -.27188779E+05 F= -.31079157E+05 EK= 0.38904E+04 SP= 0.00E+00 SK= 0.00E+00
      410 T=  4243. E= -.27188813E+05 F= -.31057854E+05 EK= 0.38690E+04 SP= 0.00E+00 SK= 0.00E+00
      420 T=  4195. E= -.27188703E+05 F= -.31014156E+05 EK= 0.38255E+04 SP= 0.00E+00 SK= 0.00E+00
      430 T=  4224. E= -.27188841E+05 F= -.31041054E+05 EK= 0.38522E+04 SP= 0.00E+00 SK= 0.00E+00
      440 T=  4199. E= -.27188673E+05 F= -.31017977E+05 EK= 0.38293E+04 SP= 0.00E+00 SK= 0.00E+00
      450 T=  4253. E= -.27188770E+05 F= -.31067150E+05 EK= 0.38784E+04 SP= 0.00E+00 SK= 0.00E+00
      460 T=  4224. E= -.27188696E+05 F= -.31041041E+05 EK= 0.38523E+04 SP= 0.00E+00 SK= 0.00E+00
      470 T=  4152. E= -.27188615E+05 F= -.30974894E+05 EK= 0.37863E+04 SP= 0.00E+00 SK= 0.00E+00
      480 T=  4160. E= -.27188688E+05 F= -.30981892E+05 EK= 0.37932E+04 SP= 0.00E+00 SK= 0.00E+00
      490 T=  4185. E= -.27188695E+05 F= -.31004697E+05 EK= 0.38160E+04 SP= 0.00E+00 SK= 0.00E+00
      500 T=  4226. E= -.27188794E+05 F= -.31042264E+05 EK= 0.38535E+04 SP= 0.00E+00 SK= 0.00E+00
      510 T=  4199. E= -.27188651E+05 F= -.31017580E+05 EK= 0.38289E+04 SP= 0.00E+00 SK= 0.00E+00
      520 T=  4201. E= -.27188590E+05 F= -.31019443E+05 EK= 0.38309E+04 SP= 0.00E+00 SK= 0.00E+00
      530 T=  4206. E= -.27188728E+05 F= -.31024296E+05 EK= 0.38356E+04 SP= 0.00E+00 SK= 0.00E+00
      540 T=  4197. E= -.27188682E+05 F= -.31015835E+05 EK= 0.38272E+04 SP= 0.00E+00 SK= 0.00E+00
      550 T=  4245. E= -.27188715E+05 F= -.31060252E+05 EK= 0.38715E+04 SP= 0.00E+00 SK= 0.00E+00
      560 T=  4221. E= -.27188685E+05 F= -.31038138E+05 EK= 0.38495E+04 SP= 0.00E+00 SK= 0.00E+00
      570 T=  4205. E= -.27188629E+05 F= -.31023417E+05 EK= 0.38348E+04 SP= 0.00E+00 SK= 0.00E+00
      580 T=  4249. E= -.27188730E+05 F= -.31063658E+05 EK= 0.38749E+04 SP= 0.00E+00 SK= 0.00E+00
      590 T=  4232. E= -.27188644E+05 F= -.31048228E+05 EK= 0.38596E+04 SP= 0.00E+00 SK= 0.00E+00
      600 T=  4258. E= -.27188631E+05 F= -.31071762E+05 EK= 0.38831E+04 SP= 0.00E+00 SK= 0.00E+00
      610 T=  4275. E= -.27188711E+05 F= -.31086890E+05 EK= 0.38982E+04 SP= 0.00E+00 SK= 0.00E+00
      620 T=  4215. E= -.27188466E+05 F= -.31032575E+05 EK= 0.38441E+04 SP= 0.00E+00 SK= 0.00E+00
      630 T=  4318. E= -.27188757E+05 F= -.31126083E+05 EK= 0.39373E+04 SP= 0.00E+00 SK= 0.00E+00
      640 T=  4268. E= -.27188553E+05 F= -.31080486E+05 EK= 0.38919E+04 SP= 0.00E+00 SK= 0.00E+00
      650 T=  4190. E= -.27188463E+05 F= -.31009811E+05 EK= 0.38213E+04 SP= 0.00E+00 SK= 0.00E+00
      660 T=  4221. E= -.27188484E+05 F= -.31037411E+05 EK= 0.38489E+04 SP= 0.00E+00 SK= 0.00E+00
      670 T=  4214. E= -.27188594E+05 F= -.31031385E+05 EK= 0.38428E+04 SP= 0.00E+00 SK= 0.00E+00
      680 T=  4146. E= -.27188378E+05 F= -.30968945E+05 EK= 0.37806E+04 SP= 0.00E+00 SK= 0.00E+00
      690 T=  4212. E= -.27188606E+05 F= -.31029803E+05 EK= 0.38412E+04 SP= 0.00E+00 SK= 0.00E+00
      700 T=  4196. E= -.27188484E+05 F= -.31014766E+05 EK= 0.38263E+04 SP= 0.00E+00 SK= 0.00E+00
      710 T=  4201. E= -.27188502E+05 F= -.31019848E+05 EK= 0.38313E+04 SP= 0.00E+00 SK= 0.00E+00
      720 T=  4231. E= -.27188553E+05 F= -.31047076E+05 EK= 0.38585E+04 SP= 0.00E+00 SK= 0.00E+00
      730 T=  4241. E= -.27188510E+05 F= -.31056278E+05 EK= 0.38678E+04 SP= 0.00E+00 SK= 0.00E+00
      740 T=  4192. E= -.27188382E+05 F= -.31011033E+05 EK= 0.38227E+04 SP= 0.00E+00 SK= 0.00E+00
      750 T=  4190. E= -.27188440E+05 F= -.31009241E+05 EK= 0.38208E+04 SP= 0.00E+00 SK= 0.00E+00
      760 T=  4230. E= -.27188475E+05 F= -.31045524E+05 EK= 0.38570E+04 SP= 0.00E+00 SK= 0.00E+00
      770 T=  4244. E= -.27188421E+05 F= -.31058608E+05 EK= 0.38702E+04 SP= 0.00E+00 SK= 0.00E+00
      780 T=  4209. E= -.27188309E+05 F= -.31026970E+05 EK= 0.38387E+04 SP= 0.00E+00 SK= 0.00E+00
      790 T=  4213. E= -.27188376E+05 F= -.31030375E+05 EK= 0.38420E+04 SP= 0.00E+00 SK= 0.00E+00
      800 T=  4183. E= -.27188326E+05 F= -.31003375E+05 EK= 0.38150E+04 SP= 0.00E+00 SK= 0.00E+00
      810 T=  4165. E= -.27188287E+05 F= -.30986237E+05 EK= 0.37980E+04 SP= 0.00E+00 SK= 0.00E+00
      820 T=  4201. E= -.27188355E+05 F= -.31019019E+05 EK= 0.38307E+04 SP= 0.00E+00 SK= 0.00E+00
      830 T=  4220. E= -.27188416E+05 F= -.31036581E+05 EK= 0.38482E+04 SP= 0.00E+00 SK= 0.00E+00
      840 T=  4157. E= -.27188284E+05 F= -.30979031E+05 EK= 0.37907E+04 SP= 0.00E+00 SK= 0.00E+00
      850 T=  4210. E= -.27188445E+05 F= -.31027375E+05 EK= 0.38389E+04 SP= 0.00E+00 SK= 0.00E+00
      860 T=  4206. E= -.27188336E+05 F= -.31023593E+05 EK= 0.38353E+04 SP= 0.00E+00 SK= 0.00E+00
      870 T=  4210. E= -.27188441E+05 F= -.31028040E+05 EK= 0.38396E+04 SP= 0.00E+00 SK= 0.00E+00
      880 T=  4209. E= -.27188413E+05 F= -.31026299E+05 EK= 0.38379E+04 SP= 0.00E+00 SK= 0.00E+00
      890 T=  4178. E= -.27188391E+05 F= -.30998756E+05 EK= 0.38104E+04 SP= 0.00E+00 SK= 0.00E+00
      900 T=  4213. E= -.27188500E+05 F= -.31030786E+05 EK= 0.38423E+04 SP= 0.00E+00 SK= 0.00E+00
      910 T=  4223. E= -.27188432E+05 F= -.31039545E+05 EK= 0.38511E+04 SP= 0.00E+00 SK= 0.00E+00
      920 T=  4237. E= -.27188380E+05 F= -.31052233E+05 EK= 0.38639E+04 SP= 0.00E+00 SK= 0.00E+00
      930 T=  4266. E= -.27188450E+05 F= -.31079062E+05 EK= 0.38906E+04 SP= 0.00E+00 SK= 0.00E+00
      940 T=  4201. E= -.27188333E+05 F= -.31019401E+05 EK= 0.38311E+04 SP= 0.00E+00 SK= 0.00E+00
      950 T=  4180. E= -.27188419E+05 F= -.31000141E+05 EK= 0.38117E+04 SP= 0.00E+00 SK= 0.00E+00
      960 T=  4182. E= -.27188431E+05 F= -.31002182E+05 EK= 0.38138E+04 SP= 0.00E+00 SK= 0.00E+00
      970 T=  4225. E= -.27188507E+05 F= -.31041569E+05 EK= 0.38531E+04 SP= 0.00E+00 SK= 0.00E+00
      980 T=  4249. E= -.27188615E+05 F= -.31063266E+05 EK= 0.38747E+04 SP= 0.00E+00 SK= 0.00E+00
      990 T=  4192. E= -.27188461E+05 F= -.31011028E+05 EK= 0.38226E+04 SP= 0.00E+00 SK= 0.00E+00
     1000 T=  4207. E= -.27188456E+05 F= -.31024602E+05 EK= 0.38361E+04 SP= 0.00E+00 SK= 0.00E+00
     1010 T=  4247. E= -.27188508E+05 F= -.31061204E+05 EK= 0.38727E+04 SP= 0.00E+00 SK= 0.00E+00
     1020 T=  4245. E= -.27188476E+05 F= -.31059910E+05 EK= 0.38714E+04 SP= 0.00E+00 SK= 0.00E+00
     1030 T=  4245. E= -.27188463E+05 F= -.31059519E+05 EK= 0.38711E+04 SP= 0.00E+00 SK= 0.00E+00
     1040 T=  4212. E= -.27188488E+05 F= -.31029579E+05 EK= 0.38411E+04 SP= 0.00E+00 SK= 0.00E+00
     1050 T=  4161. E= -.27188458E+05 F= -.30982830E+05 EK= 0.37944E+04 SP= 0.00E+00 SK= 0.00E+00
     1060 T=  4181. E= -.27188458E+05 F= -.31001186E+05 EK= 0.38127E+04 SP= 0.00E+00 SK= 0.00E+00
     1070 T=  4213. E= -.27188481E+05 F= -.31030206E+05 EK= 0.38417E+04 SP= 0.00E+00 SK= 0.00E+00
     1080 T=  4174. E= -.27188529E+05 F= -.30995317E+05 EK= 0.38068E+04 SP= 0.00E+00 SK= 0.00E+00
     1090 T=  4097. E= -.27188352E+05 F= -.30924441E+05 EK= 0.37361E+04 SP= 0.00E+00 SK= 0.00E+00
     1100 T=  4196. E= -.27188530E+05 F= -.31014898E+05 EK= 0.38264E+04 SP= 0.00E+00 SK= 0.00E+00
     1110 T=  4203. E= -.27188474E+05 F= -.31021433E+05 EK= 0.38330E+04 SP= 0.00E+00 SK= 0.00E+00
     1120 T=  4208. E= -.27188535E+05 F= -.31025926E+05 EK= 0.38374E+04 SP= 0.00E+00 SK= 0.00E+00
     1130 T=  4192. E= -.27188396E+05 F= -.31011521E+05 EK= 0.38231E+04 SP= 0.00E+00 SK= 0.00E+00
     1140 T=  4208. E= -.27188453E+05 F= -.31026003E+05 EK= 0.38376E+04 SP= 0.00E+00 SK= 0.00E+00
     1150 T=  4256. E= -.27188517E+05 F= -.31069374E+05 EK= 0.38809E+04 SP= 0.00E+00 SK= 0.00E+00
     1160 T=  4184. E= -.27188439E+05 F= -.31004245E+05 EK= 0.38158E+04 SP= 0.00E+00 SK= 0.00E+00
     1170 T=  4103. E= -.27188386E+05 F= -.30929780E+05 EK= 0.37414E+04 SP= 0.00E+00 SK= 0.00E+00
     1180 T=  4176. E= -.27188474E+05 F= -.30996476E+05 EK= 0.38080E+04 SP= 0.00E+00 SK= 0.00E+00
     1190 T=  4242. E= -.27188561E+05 F= -.31056551E+05 EK= 0.38680E+04 SP= 0.00E+00 SK= 0.00E+00
     1200 T=  4196. E= -.27188460E+05 F= -.31014668E+05 EK= 0.38262E+04 SP= 0.00E+00 SK= 0.00E+00
     1210 T=  4193. E= -.27188502E+05 F= -.31012619E+05 EK= 0.38241E+04 SP= 0.00E+00 SK= 0.00E+00
     1220 T=  4192. E= -.27188527E+05 F= -.31011457E+05 EK= 0.38229E+04 SP= 0.00E+00 SK= 0.00E+00
     1230 T=  4155. E= -.27188401E+05 F= -.30977731E+05 EK= 0.37893E+04 SP= 0.00E+00 SK= 0.00E+00
     1240 T=  4193. E= -.27188502E+05 F= -.31012564E+05 EK= 0.38241E+04 SP= 0.00E+00 SK= 0.00E+00
     1250 T=  4168. E= -.27188332E+05 F= -.30989605E+05 EK= 0.38013E+04 SP= 0.00E+00 SK= 0.00E+00
     1260 T=  4207. E= -.27188468E+05 F= -.31025153E+05 EK= 0.38367E+04 SP= 0.00E+00 SK= 0.00E+00
     1270 T=  4216. E= -.27188470E+05 F= -.31033201E+05 EK= 0.38447E+04 SP= 0.00E+00 SK= 0.00E+00
     1280 T=  4181. E= -.27188407E+05 F= -.31001248E+05 EK= 0.38128E+04 SP= 0.00E+00 SK= 0.00E+00
     1290 T=  4209. E= -.27188533E+05 F= -.31026667E+05 EK= 0.38381E+04 SP= 0.00E+00 SK= 0.00E+00
     1300 T=  4199. E= -.27188480E+05 F= -.31017639E+05 EK= 0.38292E+04 SP= 0.00E+00 SK= 0.00E+00
     1310 T=  4148. E= -.27188453E+05 F= -.30971365E+05 EK= 0.37829E+04 SP= 0.00E+00 SK= 0.00E+00
     1320 T=  4158. E= -.27188536E+05 F= -.30980806E+05 EK= 0.37923E+04 SP= 0.00E+00 SK= 0.00E+00
     1330 T=  4126. E= -.27188513E+05 F= -.30951605E+05 EK= 0.37631E+04 SP= 0.00E+00 SK= 0.00E+00
     1340 T=  4146. E= -.27188409E+05 F= -.30969731E+05 EK= 0.37813E+04 SP= 0.00E+00 SK= 0.00E+00
     1350 T=  4265. E= -.27188627E+05 F= -.31077880E+05 EK= 0.38893E+04 SP= 0.00E+00 SK= 0.00E+00
     1360 T=  4166. E= -.27188390E+05 F= -.30987154E+05 EK= 0.37988E+04 SP= 0.00E+00 SK= 0.00E+00
     1370 T=  4132. E= -.27188497E+05 F= -.30956636E+05 EK= 0.37681E+04 SP= 0.00E+00 SK= 0.00E+00
     1380 T=  4126. E= -.27188555E+05 F= -.30951239E+05 EK= 0.37627E+04 SP= 0.00E+00 SK= 0.00E+00
     1390 T=  4133. E= -.27188538E+05 F= -.30957114E+05 EK= 0.37686E+04 SP= 0.00E+00 SK= 0.00E+00
     1400 T=  4167. E= -.27188642E+05 F= -.30988822E+05 EK= 0.38002E+04 SP= 0.00E+00 SK= 0.00E+00
     1410 T=  4098. E= -.27188514E+05 F= -.30925310E+05 EK= 0.37368E+04 SP= 0.00E+00 SK= 0.00E+00
     1420 T=  4122. E= -.27188544E+05 F= -.30947979E+05 EK= 0.37594E+04 SP= 0.00E+00 SK= 0.00E+00
     1430 T=  4226. E= -.27188699E+05 F= -.31042181E+05 EK= 0.38535E+04 SP= 0.00E+00 SK= 0.00E+00
     1440 T=  4152. E= -.27188498E+05 F= -.30975085E+05 EK= 0.37866E+04 SP= 0.00E+00 SK= 0.00E+00
     1450 T=  4170. E= -.27188642E+05 F= -.30991147E+05 EK= 0.38025E+04 SP= 0.00E+00 SK= 0.00E+00
     1460 T=  4165. E= -.27188557E+05 F= -.30986825E+05 EK= 0.37983E+04 SP= 0.00E+00 SK= 0.00E+00
     1470 T=  4154. E= -.27188551E+05 F= -.30976665E+05 EK= 0.37881E+04 SP= 0.00E+00 SK= 0.00E+00
     1480 T=  4152. E= -.27188538E+05 F= -.30975025E+05 EK= 0.37865E+04 SP= 0.00E+00 SK= 0.00E+00
     1490 T=  4154. E= -.27188528E+05 F= -.30976873E+05 EK= 0.37883E+04 SP= 0.00E+00 SK= 0.00E+00
     1500 T=  4191. E= -.27188538E+05 F= -.31010744E+05 EK= 0.38222E+04 SP= 0.00E+00 SK= 0.00E+00
     1510 T=  4212. E= -.27188569E+05 F= -.31030088E+05 EK= 0.38415E+04 SP= 0.00E+00 SK= 0.00E+00
     1520 T=  4200. E= -.27188608E+05 F= -.31018797E+05 EK= 0.38302E+04 SP= 0.00E+00 SK= 0.00E+00
     1530 T=  4180. E= -.27188563E+05 F= -.31000747E+05 EK= 0.38122E+04 SP= 0.00E+00 SK= 0.00E+00
     1540 T=  4180. E= -.27188590E+05 F= -.31000167E+05 EK= 0.38116E+04 SP= 0.00E+00 SK= 0.00E+00
     1550 T=  4120. E= -.27188500E+05 F= -.30945639E+05 EK= 0.37571E+04 SP= 0.00E+00 SK= 0.00E+00
     1560 T=  4115. E= -.27188435E+05 F= -.30941226E+05 EK= 0.37528E+04 SP= 0.00E+00 SK= 0.00E+00
     1570 T=  4189. E= -.27188627E+05 F= -.31008638E+05 EK= 0.38200E+04 SP= 0.00E+00 SK= 0.00E+00
     1580 T=  4134. E= -.27188597E+05 F= -.30958333E+05 EK= 0.37697E+04 SP= 0.00E+00 SK= 0.00E+00
     1590 T=  4085. E= -.27188545E+05 F= -.30914208E+05 EK= 0.37257E+04 SP= 0.00E+00 SK= 0.00E+00
     1600 T=  4112. E= -.27188677E+05 F= -.30938295E+05 EK= 0.37496E+04 SP= 0.00E+00 SK= 0.00E+00
     1610 T=  4117. E= -.27188546E+05 F= -.30943243E+05 EK= 0.37547E+04 SP= 0.00E+00 SK= 0.00E+00
     1620 T=  4173. E= -.27188592E+05 F= -.30993951E+05 EK= 0.38054E+04 SP= 0.00E+00 SK= 0.00E+00
     1630 T=  4125. E= -.27188492E+05 F= -.30950665E+05 EK= 0.37622E+04 SP= 0.00E+00 SK= 0.00E+00
     1640 T=  4100. E= -.27188549E+05 F= -.30927280E+05 EK= 0.37387E+04 SP= 0.00E+00 SK= 0.00E+00
     1650 T=  4125. E= -.27188570E+05 F= -.30950280E+05 EK= 0.37617E+04 SP= 0.00E+00 SK= 0.00E+00
     1660 T=  4110. E= -.27188488E+05 F= -.30936657E+05 EK= 0.37482E+04 SP= 0.00E+00 SK= 0.00E+00
     1670 T=  4136. E= -.27188519E+05 F= -.30960019E+05 EK= 0.37715E+04 SP= 0.00E+00 SK= 0.00E+00
     1680 T=  4135. E= -.27188518E+05 F= -.30959749E+05 EK= 0.37712E+04 SP= 0.00E+00 SK= 0.00E+00
     1690 T=  4119. E= -.27188408E+05 F= -.30944726E+05 EK= 0.37563E+04 SP= 0.00E+00 SK= 0.00E+00
     1700 T=  4140. E= -.27188472E+05 F= -.30963715E+05 EK= 0.37752E+04 SP= 0.00E+00 SK= 0.00E+00
     1710 T=  4095. E= -.27188294E+05 F= -.30922296E+05 EK= 0.37340E+04 SP= 0.00E+00 SK= 0.00E+00
     1720 T=  4088. E= -.27188230E+05 F= -.30916166E+05 EK= 0.37279E+04 SP= 0.00E+00 SK= 0.00E+00
     1730 T=  4087. E= -.27188361E+05 F= -.30915265E+05 EK= 0.37269E+04 SP= 0.00E+00 SK= 0.00E+00
     1740 T=  4022. E= -.27188205E+05 F= -.30856233E+05 EK= 0.36680E+04 SP= 0.00E+00 SK= 0.00E+00
     1750 T=  4091. E= -.27188377E+05 F= -.30918769E+05 EK= 0.37304E+04 SP= 0.00E+00 SK= 0.00E+00
     1760 T=  4101. E= -.27188375E+05 F= -.30928613E+05 EK= 0.37402E+04 SP= 0.00E+00 SK= 0.00E+00
     1770 T=  4036. E= -.27188123E+05 F= -.30868833E+05 EK= 0.36807E+04 SP= 0.00E+00 SK= 0.00E+00
     1780 T=  4089. E= -.27188411E+05 F= -.30917037E+05 EK= 0.37286E+04 SP= 0.00E+00 SK= 0.00E+00
     1790 T=  4052. E= -.27188252E+05 F= -.30883287E+05 EK= 0.36950E+04 SP= 0.00E+00 SK= 0.00E+00
     1800 T=  4089. E= -.27188419E+05 F= -.30917706E+05 EK= 0.37293E+04 SP= 0.00E+00 SK= 0.00E+00
     1810 T=  4057. E= -.27188267E+05 F= -.30887756E+05 EK= 0.36995E+04 SP= 0.00E+00 SK= 0.00E+00
     1820 T=  4081. E= -.27188280E+05 F= -.30909770E+05 EK= 0.37215E+04 SP= 0.00E+00 SK= 0.00E+00
     1830 T=  4116. E= -.27188208E+05 F= -.30942174E+05 EK= 0.37540E+04 SP= 0.00E+00 SK= 0.00E+00
     1840 T=  4140. E= -.27188228E+05 F= -.30963629E+05 EK= 0.37754E+04 SP= 0.00E+00 SK= 0.00E+00
     1850 T=  4145. E= -.27188296E+05 F= -.30967992E+05 EK= 0.37797E+04 SP= 0.00E+00 SK= 0.00E+00
     1860 T=  4095. E= -.27188336E+05 F= -.30922675E+05 EK= 0.37343E+04 SP= 0.00E+00 SK= 0.00E+00
     1870 T=  4064. E= -.27188424E+05 F= -.30894177E+05 EK= 0.37058E+04 SP= 0.00E+00 SK= 0.00E+00
     1880 T=  4061. E= -.27188412E+05 F= -.30892034E+05 EK= 0.37036E+04 SP= 0.00E+00 SK= 0.00E+00
     1890 T=  4070. E= -.27188246E+05 F= -.30899917E+05 EK= 0.37117E+04 SP= 0.00E+00 SK= 0.00E+00
     1900 T=  4140. E= -.27188431E+05 F= -.30963579E+05 EK= 0.37751E+04 SP= 0.00E+00 SK= 0.00E+00
     1910 T=  4083. E= -.27188169E+05 F= -.30911451E+05 EK= 0.37233E+04 SP= 0.00E+00 SK= 0.00E+00
     1920 T=  4094. E= -.27188328E+05 F= -.30921727E+05 EK= 0.37334E+04 SP= 0.00E+00 SK= 0.00E+00
     1930 T=  4087. E= -.27188211E+05 F= -.30915644E+05 EK= 0.37274E+04 SP= 0.00E+00 SK= 0.00E+00
     1940 T=  4112. E= -.27188311E+05 F= -.30938262E+05 EK= 0.37500E+04 SP= 0.00E+00 SK= 0.00E+00
     1950 T=  4080. E= -.27188161E+05 F= -.30908778E+05 EK= 0.37206E+04 SP= 0.00E+00 SK= 0.00E+00
     1960 T=  4100. E= -.27188206E+05 F= -.30926920E+05 EK= 0.37387E+04 SP= 0.00E+00 SK= 0.00E+00
     1970 T=  4090. E= -.27188291E+05 F= -.30918003E+05 EK= 0.37297E+04 SP= 0.00E+00 SK= 0.00E+00
     1980 T=  4019. E= -.27188098E+05 F= -.30852976E+05 EK= 0.36649E+04 SP= 0.00E+00 SK= 0.00E+00
     1990 T=  4068. E= -.27188200E+05 F= -.30898027E+05 EK= 0.37098E+04 SP= 0.00E+00 SK= 0.00E+00
At line 1940 of file md.f90
Fortran runtime error: Unit number is negative and unit was not already opened with OPEN(NEWUNIT=...)

Error termination. Backtrace:
At line 1940 of file md.f90
Fortran runtime error: Unit number is negative and unit was not already opened with OPEN(NEWUNIT=...)

Error termination. Backtrace:
At line 1940 of file md.f90
Fortran runtime error: Unit number is negative and unit was not already opened with OPEN(NEWUNIT=...)

Error termination. Backtrace:
At line 1940 of file md.f90
Fortran runtime error: Unit number is negative and unit was not already opened with OPEN(NEWUNIT=...)

Error termination. Backtrace:
At line 1940 of file md.f90
Fortran runtime error: Unit number is negative and unit was not already opened with OPEN(NEWUNIT=...)

Error termination. Backtrace:
     2000 T=  4091. E= -.27188217E+05 F= -.30918933E+05 EK= 0.37307E+04 SP= 0.00E+00 SK= 0.00E+00
Rc and Rl:   5.500000  7.321000

Average number of steps between two list updates:  18.69
Average number of atoms in the shell:     0.01
#0  0x7f25578ebd11 in ???
#1  0x7f25578ec859 in ???
#2  0x7f25578ed53f in ???
#3  0x5558368ac0bc in ???
#4  0x5558368a792e in ???
#5  0x7f2557582082 in __libc_start_main
	at ../csu/libc-start.c:308
#6  0x5558368a796d in ???
#7  0xffffffffffffffff in ???
#0  0x7feecd93ad11 in ???
#1  0x7feecd93b859 in ???
#2  0x7feecd93c53f in ???
#3  0x5575c59f00bc in ???
#4  0x5575c59eb92e in ???
#5  0x7feecd5d1082 in __libc_start_main
	at ../csu/libc-start.c:308
#6  0x5575c59eb96d in ???
#7  0xffffffffffffffff in ???
#0  0x7f6f2b611d11 in ???
#1  0x7f6f2b612859 in ???
#2  0x7f6f2b61353f in ???
#3  0x5580183530bc in ???
#4  0x55801834e92e in ???
#5  0x7f6f2b2a8082 in __libc_start_main
	at ../csu/libc-start.c:308
#6  0x55801834e96d in ???
#7  0xffffffffffffffff in ???
#0  0x7f70a077bd11 in ???
#1  0x7f70a077c859 in ???
#2  0x7f70a077d53f in ???
#3  0x562c2552b0bc in ???
#4  0x562c2552692e in ???
#5  0x7f70a0412082 in __libc_start_main
	at ../csu/libc-start.c:308
#6  0x562c2552696d in ???
#7  0xffffffffffffffff in ???
