 running on    6 nodes
 distr:  one band on    1 nodes,    6 groups
 md.x 0.99
 POSCAR found :  1 types and     7056 ions
Rc and Rl:   5.500000  7.321000
 TIPO = eam     
 TIPO1 = uknown p
 Using EAM

 EAM parameters: 
 C  =   9.9634  EPS  = 0.2048  A  = 3.5678  M  = 3.127  N  =  6.366  R1 =   5.500000


 ----------------------------------------------------------------------------- 
|                                                                             |
|           W    W    AA    RRRRR   N    N  II  N    N   GGGG   !!!           |
|           W    W   A  A   R    R  NN   N  II  NN   N  G    G  !!!           |
|           W    W  A    A  R    R  N N  N  II  N N  N  G       !!!           |
|           W WW W  AAAAAA  RRRRR   N  N N  II  N  N N  G  GGG   !            |
|           WW  WW  A    A  R   R   N   NN  II  N   NN  G    G                |
|           W    W  A    A  R    R  N    N  II  N    N   GGGG   !!!           |
|                                                                             |
|      VASP found  21165 degrees of freedom                                   |
|      the temperature will equal 2*E(kin)/ (degrees of freedom)              |
|      this differs from previous releases, where T was 2*E(kin)/(3 NIONS).   |
|      The new definition is more consistent                                  |
|                                                                             |
 ----------------------------------------------------------------------------- 

 Random init:       23032         603
 Random init:       23032         603
 Random init:       23032         603
 Random init:       23032         603
 Random init:       23032         603
 Random init:       23032         603
 alloco spazio per displ
       10 T=  2073. E= -.29479080E+05 F= -.31369432E+05 EK= 0.18904E+04 SP= 0.00E+00 SK= 0.00E+00
       20 T=  2006. E= -.29478866E+05 F= -.31308662E+05 EK= 0.18298E+04 SP= 0.00E+00 SK= 0.00E+00
       30 T=  2036. E= -.29478907E+05 F= -.31335734E+05 EK= 0.18568E+04 SP= 0.00E+00 SK= 0.00E+00
       40 T=  2102. E= -.29479044E+05 F= -.31395657E+05 EK= 0.19166E+04 SP= 0.00E+00 SK= 0.00E+00
       50 T=  2048. E= -.29478867E+05 F= -.31346223E+05 EK= 0.18674E+04 SP= 0.00E+00 SK= 0.00E+00
       60 T=  2050. E= -.29478905E+05 F= -.31348200E+05 EK= 0.18693E+04 SP= 0.00E+00 SK= 0.00E+00
       70 T=  2057. E= -.29478963E+05 F= -.31355114E+05 EK= 0.18762E+04 SP= 0.00E+00 SK= 0.00E+00
       80 T=  2049. E= -.29478913E+05 F= -.31347541E+05 EK= 0.18686E+04 SP= 0.00E+00 SK= 0.00E+00
       90 T=  2062. E= -.29478947E+05 F= -.31359286E+05 EK= 0.18803E+04 SP= 0.00E+00 SK= 0.00E+00
      100 T=  2046. E= -.29478917E+05 F= -.31344624E+05 EK= 0.18657E+04 SP= 0.00E+00 SK= 0.00E+00
      110 T=  2013. E= -.29478862E+05 F= -.31314896E+05 EK= 0.18360E+04 SP= 0.00E+00 SK= 0.00E+00
      120 T=  2033. E= -.29478879E+05 F= -.31332433E+05 EK= 0.18536E+04 SP= 0.00E+00 SK= 0.00E+00
      130 T=  2042. E= -.29478889E+05 F= -.31340999E+05 EK= 0.18621E+04 SP= 0.00E+00 SK= 0.00E+00
      140 T=  2025. E= -.29478779E+05 F= -.31325564E+05 EK= 0.18468E+04 SP= 0.00E+00 SK= 0.00E+00
Randomizing velocities, T =  4000.
      150 T=  2025. E= -.29523122E+05 F= -.31370049E+05 EK= 0.18469E+04 SP= 0.00E+00 SK= 0.00E+00
Randomizing velocities, T =  4000.
      160 T=  2005. E= -.29597270E+05 F= -.31425748E+05 EK= 0.18285E+04 SP= 0.00E+00 SK= 0.00E+00
      170 T=  1972. E= -.29597163E+05 F= -.31395123E+05 EK= 0.17980E+04 SP= 0.00E+00 SK= 0.00E+00
      180 T=  1967. E= -.29597204E+05 F= -.31390541E+05 EK= 0.17933E+04 SP= 0.00E+00 SK= 0.00E+00
      190 T=  1978. E= -.29597191E+05 F= -.31400893E+05 EK= 0.18037E+04 SP= 0.00E+00 SK= 0.00E+00
      200 T=  1978. E= -.29597216E+05 F= -.31400979E+05 EK= 0.18038E+04 SP= 0.00E+00 SK= 0.00E+00
      210 T=  1974. E= -.29597200E+05 F= -.31397774E+05 EK= 0.18006E+04 SP= 0.00E+00 SK= 0.00E+00
      220 T=  1972. E= -.29597200E+05 F= -.31395773E+05 EK= 0.17986E+04 SP= 0.00E+00 SK= 0.00E+00
      230 T=  1987. E= -.29597184E+05 F= -.31409591E+05 EK= 0.18124E+04 SP= 0.00E+00 SK= 0.00E+00
      240 T=  1988. E= -.29597196E+05 F= -.31410246E+05 EK= 0.18130E+04 SP= 0.00E+00 SK= 0.00E+00
      250 T=  1990. E= -.29597228E+05 F= -.31411724E+05 EK= 0.18145E+04 SP= 0.00E+00 SK= 0.00E+00
      260 T=  1988. E= -.29597212E+05 F= -.31410482E+05 EK= 0.18133E+04 SP= 0.00E+00 SK= 0.00E+00
      270 T=  2011. E= -.29597196E+05 F= -.31431463E+05 EK= 0.18343E+04 SP= 0.00E+00 SK= 0.00E+00
      280 T=  2012. E= -.29597199E+05 F= -.31432201E+05 EK= 0.18350E+04 SP= 0.00E+00 SK= 0.00E+00
      290 T=  1964. E= -.29597172E+05 F= -.31387877E+05 EK= 0.17907E+04 SP= 0.00E+00 SK= 0.00E+00
      300 T=  1937. E= -.29597184E+05 F= -.31363475E+05 EK= 0.17663E+04 SP= 0.00E+00 SK= 0.00E+00
      310 T=  1942. E= -.29597214E+05 F= -.31368091E+05 EK= 0.17709E+04 SP= 0.00E+00 SK= 0.00E+00
      320 T=  1950. E= -.29597163E+05 F= -.31375611E+05 EK= 0.17784E+04 SP= 0.00E+00 SK= 0.00E+00
      330 T=  2001. E= -.29597227E+05 F= -.31422399E+05 EK= 0.18252E+04 SP= 0.00E+00 SK= 0.00E+00
      340 T=  2005. E= -.29597262E+05 F= -.31425883E+05 EK= 0.18286E+04 SP= 0.00E+00 SK= 0.00E+00
      350 T=  1959. E= -.29597190E+05 F= -.31383482E+05 EK= 0.17863E+04 SP= 0.00E+00 SK= 0.00E+00
      360 T=  1998. E= -.29597264E+05 F= -.31419521E+05 EK= 0.18223E+04 SP= 0.00E+00 SK= 0.00E+00
      370 T=  1993. E= -.29597264E+05 F= -.31414680E+05 EK= 0.18174E+04 SP= 0.00E+00 SK= 0.00E+00
      380 T=  1966. E= -.29597231E+05 F= -.31389652E+05 EK= 0.17924E+04 SP= 0.00E+00 SK= 0.00E+00
      390 T=  1978. E= -.29597157E+05 F= -.31400803E+05 EK= 0.18036E+04 SP= 0.00E+00 SK= 0.00E+00
      400 T=  2019. E= -.29597348E+05 F= -.31438896E+05 EK= 0.18415E+04 SP= 0.00E+00 SK= 0.00E+00
      410 T=  1961. E= -.29597158E+05 F= -.31385344E+05 EK= 0.17882E+04 SP= 0.00E+00 SK= 0.00E+00
      420 T=  1960. E= -.29597266E+05 F= -.31384651E+05 EK= 0.17874E+04 SP= 0.00E+00 SK= 0.00E+00
      430 T=  1962. E= -.29597152E+05 F= -.31386555E+05 EK= 0.17894E+04 SP= 0.00E+00 SK= 0.00E+00
      440 T=  1994. E= -.29597313E+05 F= -.31415373E+05 EK= 0.18181E+04 SP= 0.00E+00 SK= 0.00E+00
      450 T=  1975. E= -.29597119E+05 F= -.31398086E+05 EK= 0.18010E+04 SP= 0.00E+00 SK= 0.00E+00
      460 T=  2046. E= -.29597275E+05 F= -.31462904E+05 EK= 0.18656E+04 SP= 0.00E+00 SK= 0.00E+00
      470 T=  2034. E= -.29597264E+05 F= -.31452150E+05 EK= 0.18549E+04 SP= 0.00E+00 SK= 0.00E+00
      480 T=  1986. E= -.29597189E+05 F= -.31408298E+05 EK= 0.18111E+04 SP= 0.00E+00 SK= 0.00E+00
      490 T=  1977. E= -.29597260E+05 F= -.31400593E+05 EK= 0.18033E+04 SP= 0.00E+00 SK= 0.00E+00
      500 T=  1965. E= -.29597274E+05 F= -.31388893E+05 EK= 0.17916E+04 SP= 0.00E+00 SK= 0.00E+00
      510 T=  1963. E= -.29597298E+05 F= -.31386992E+05 EK= 0.17897E+04 SP= 0.00E+00 SK= 0.00E+00
      520 T=  2009. E= -.29597395E+05 F= -.31429053E+05 EK= 0.18317E+04 SP= 0.00E+00 SK= 0.00E+00
      530 T=  2020. E= -.29597367E+05 F= -.31439319E+05 EK= 0.18420E+04 SP= 0.00E+00 SK= 0.00E+00
      540 T=  2000. E= -.29597352E+05 F= -.31421313E+05 EK= 0.18240E+04 SP= 0.00E+00 SK= 0.00E+00
      550 T=  1974. E= -.29597358E+05 F= -.31397197E+05 EK= 0.17998E+04 SP= 0.00E+00 SK= 0.00E+00
      560 T=  1978. E= -.29597357E+05 F= -.31400803E+05 EK= 0.18034E+04 SP= 0.00E+00 SK= 0.00E+00
      570 T=  1992. E= -.29597388E+05 F= -.31413698E+05 EK= 0.18163E+04 SP= 0.00E+00 SK= 0.00E+00
      580 T=  1981. E= -.29597438E+05 F= -.31403853E+05 EK= 0.18064E+04 SP= 0.00E+00 SK= 0.00E+00
      590 T=  1964. E= -.29597361E+05 F= -.31388831E+05 EK= 0.17915E+04 SP= 0.00E+00 SK= 0.00E+00
      600 T=  1984. E= -.29597366E+05 F= -.31406887E+05 EK= 0.18095E+04 SP= 0.00E+00 SK= 0.00E+00
      610 T=  1997. E= -.29597333E+05 F= -.31418578E+05 EK= 0.18212E+04 SP= 0.00E+00 SK= 0.00E+00
      620 T=  1996. E= -.29597365E+05 F= -.31417279E+05 EK= 0.18199E+04 SP= 0.00E+00 SK= 0.00E+00
      630 T=  1954. E= -.29597278E+05 F= -.31379227E+05 EK= 0.17819E+04 SP= 0.00E+00 SK= 0.00E+00
      640 T=  1972. E= -.29597358E+05 F= -.31395363E+05 EK= 0.17980E+04 SP= 0.00E+00 SK= 0.00E+00
      650 T=  1983. E= -.29597370E+05 F= -.31405520E+05 EK= 0.18081E+04 SP= 0.00E+00 SK= 0.00E+00
      660 T=  1962. E= -.29597280E+05 F= -.31386462E+05 EK= 0.17892E+04 SP= 0.00E+00 SK= 0.00E+00
      670 T=  2002. E= -.29597443E+05 F= -.31423531E+05 EK= 0.18261E+04 SP= 0.00E+00 SK= 0.00E+00
      680 T=  1970. E= -.29597344E+05 F= -.31393894E+05 EK= 0.17965E+04 SP= 0.00E+00 SK= 0.00E+00
      690 T=  1977. E= -.29597365E+05 F= -.31400190E+05 EK= 0.18028E+04 SP= 0.00E+00 SK= 0.00E+00
      700 T=  1992. E= -.29597412E+05 F= -.31414441E+05 EK= 0.18170E+04 SP= 0.00E+00 SK= 0.00E+00
      710 T=  1997. E= -.29597406E+05 F= -.31418617E+05 EK= 0.18212E+04 SP= 0.00E+00 SK= 0.00E+00
      720 T=  2001. E= -.29597430E+05 F= -.31422313E+05 EK= 0.18249E+04 SP= 0.00E+00 SK= 0.00E+00
      730 T=  1964. E= -.29597358E+05 F= -.31388031E+05 EK= 0.17907E+04 SP= 0.00E+00 SK= 0.00E+00
      740 T=  1964. E= -.29597376E+05 F= -.31387985E+05 EK= 0.17906E+04 SP= 0.00E+00 SK= 0.00E+00
      750 T=  1981. E= -.29597382E+05 F= -.31403817E+05 EK= 0.18064E+04 SP= 0.00E+00 SK= 0.00E+00
      760 T=  1974. E= -.29597415E+05 F= -.31397542E+05 EK= 0.18001E+04 SP= 0.00E+00 SK= 0.00E+00
      770 T=  1951. E= -.29597340E+05 F= -.31376732E+05 EK= 0.17794E+04 SP= 0.00E+00 SK= 0.00E+00
      780 T=  1973. E= -.29597368E+05 F= -.31396192E+05 EK= 0.17988E+04 SP= 0.00E+00 SK= 0.00E+00
      790 T=  1966. E= -.29597350E+05 F= -.31390243E+05 EK= 0.17929E+04 SP= 0.00E+00 SK= 0.00E+00
      800 T=  1950. E= -.29597353E+05 F= -.31375708E+05 EK= 0.17784E+04 SP= 0.00E+00 SK= 0.00E+00
      810 T=  1962. E= -.29597381E+05 F= -.31386215E+05 EK= 0.17888E+04 SP= 0.00E+00 SK= 0.00E+00
      820 T=  2001. E= -.29597400E+05 F= -.31422471E+05 EK= 0.18251E+04 SP= 0.00E+00 SK= 0.00E+00
      830 T=  2023. E= -.29597387E+05 F= -.31442333E+05 EK= 0.18449E+04 SP= 0.00E+00 SK= 0.00E+00
      840 T=  2011. E= -.29597389E+05 F= -.31431019E+05 EK= 0.18336E+04 SP= 0.00E+00 SK= 0.00E+00
      850 T=  1988. E= -.29597332E+05 F= -.31410042E+05 EK= 0.18127E+04 SP= 0.00E+00 SK= 0.00E+00
      860 T=  2007. E= -.29597459E+05 F= -.31427480E+05 EK= 0.18300E+04 SP= 0.00E+00 SK= 0.00E+00
      870 T=  1959. E= -.29597358E+05 F= -.31383680E+05 EK= 0.17863E+04 SP= 0.00E+00 SK= 0.00E+00
      880 T=  1956. E= -.29597324E+05 F= -.31381425E+05 EK= 0.17841E+04 SP= 0.00E+00 SK= 0.00E+00
      890 T=  2005. E= -.29597419E+05 F= -.31426054E+05 EK= 0.18286E+04 SP= 0.00E+00 SK= 0.00E+00
      900 T=  1982. E= -.29597363E+05 F= -.31404383E+05 EK= 0.18070E+04 SP= 0.00E+00 SK= 0.00E+00
      910 T=  1985. E= -.29597397E+05 F= -.31407182E+05 EK= 0.18098E+04 SP= 0.00E+00 SK= 0.00E+00
      920 T=  2007. E= -.29597473E+05 F= -.31427446E+05 EK= 0.18300E+04 SP= 0.00E+00 SK= 0.00E+00
      930 T=  1982. E= -.29597372E+05 F= -.31404747E+05 EK= 0.18074E+04 SP= 0.00E+00 SK= 0.00E+00
      940 T=  1962. E= -.29597345E+05 F= -.31386428E+05 EK= 0.17891E+04 SP= 0.00E+00 SK= 0.00E+00
      950 T=  1977. E= -.29597416E+05 F= -.31399971E+05 EK= 0.18026E+04 SP= 0.00E+00 SK= 0.00E+00
      960 T=  1979. E= -.29597399E+05 F= -.31401959E+05 EK= 0.18046E+04 SP= 0.00E+00 SK= 0.00E+00
      970 T=  1981. E= -.29597371E+05 F= -.31404268E+05 EK= 0.18069E+04 SP= 0.00E+00 SK= 0.00E+00
      980 T=  2014. E= -.29597471E+05 F= -.31434164E+05 EK= 0.18367E+04 SP= 0.00E+00 SK= 0.00E+00
      990 T=  1965. E= -.29597324E+05 F= -.31388846E+05 EK= 0.17915E+04 SP= 0.00E+00 SK= 0.00E+00
     1000 T=  1955. E= -.29597306E+05 F= -.31380002E+05 EK= 0.17827E+04 SP= 0.00E+00 SK= 0.00E+00
Randomizing velocities, T =  4000.
     1010 T=  2058. E= -.29573952E+05 F= -.31450676E+05 EK= 0.18767E+04 SP= 0.00E+00 SK= 0.00E+00
     1020 T=  1979. E= -.29573731E+05 F= -.31378150E+05 EK= 0.18044E+04 SP= 0.00E+00 SK= 0.00E+00
     1030 T=  1967. E= -.29573752E+05 F= -.31367351E+05 EK= 0.17936E+04 SP= 0.00E+00 SK= 0.00E+00
     1040 T=  2003. E= -.29573894E+05 F= -.31400673E+05 EK= 0.18268E+04 SP= 0.00E+00 SK= 0.00E+00
     1050 T=  1969. E= -.29573760E+05 F= -.31369110E+05 EK= 0.17954E+04 SP= 0.00E+00 SK= 0.00E+00
     1060 T=  1993. E= -.29573790E+05 F= -.31391506E+05 EK= 0.18177E+04 SP= 0.00E+00 SK= 0.00E+00
     1070 T=  2002. E= -.29573692E+05 F= -.31399385E+05 EK= 0.18257E+04 SP= 0.00E+00 SK= 0.00E+00
     1080 T=  2022. E= -.29573654E+05 F= -.31417301E+05 EK= 0.18436E+04 SP= 0.00E+00 SK= 0.00E+00
     1090 T=  2024. E= -.29573675E+05 F= -.31419378E+05 EK= 0.18457E+04 SP= 0.00E+00 SK= 0.00E+00
     1100 T=  1982. E= -.29573690E+05 F= -.31381192E+05 EK= 0.18075E+04 SP= 0.00E+00 SK= 0.00E+00
     1110 T=  1975. E= -.29573678E+05 F= -.31374351E+05 EK= 0.18007E+04 SP= 0.00E+00 SK= 0.00E+00
     1120 T=  2001. E= -.29573707E+05 F= -.31398371E+05 EK= 0.18247E+04 SP= 0.00E+00 SK= 0.00E+00
     1130 T=  1986. E= -.29573613E+05 F= -.31385084E+05 EK= 0.18115E+04 SP= 0.00E+00 SK= 0.00E+00
     1140 T=  1984. E= -.29573628E+05 F= -.31383027E+05 EK= 0.18094E+04 SP= 0.00E+00 SK= 0.00E+00
     1150 T=  1972. E= -.29573609E+05 F= -.31371752E+05 EK= 0.17981E+04 SP= 0.00E+00 SK= 0.00E+00
     1160 T=  1985. E= -.29573593E+05 F= -.31383781E+05 EK= 0.18102E+04 SP= 0.00E+00 SK= 0.00E+00
     1170 T=  2027. E= -.29573594E+05 F= -.31422440E+05 EK= 0.18488E+04 SP= 0.00E+00 SK= 0.00E+00
     1180 T=  2019. E= -.29573534E+05 F= -.31414728E+05 EK= 0.18412E+04 SP= 0.00E+00 SK= 0.00E+00
     1190 T=  1984. E= -.29573491E+05 F= -.31382854E+05 EK= 0.18094E+04 SP= 0.00E+00 SK= 0.00E+00
     1200 T=  1998. E= -.29573557E+05 F= -.31395439E+05 EK= 0.18219E+04 SP= 0.00E+00 SK= 0.00E+00
     1210 T=  1975. E= -.29573493E+05 F= -.31374759E+05 EK= 0.18013E+04 SP= 0.00E+00 SK= 0.00E+00
     1220 T=  1967. E= -.29573523E+05 F= -.31367400E+05 EK= 0.17939E+04 SP= 0.00E+00 SK= 0.00E+00
     1230 T=  1957. E= -.29573500E+05 F= -.31357798E+05 EK= 0.17843E+04 SP= 0.00E+00 SK= 0.00E+00
     1240 T=  1957. E= -.29573545E+05 F= -.31358363E+05 EK= 0.17848E+04 SP= 0.00E+00 SK= 0.00E+00
     1250 T=  1949. E= -.29573550E+05 F= -.31350512E+05 EK= 0.17770E+04 SP= 0.00E+00 SK= 0.00E+00
     1260 T=  1983. E= -.29573609E+05 F= -.31382326E+05 EK= 0.18087E+04 SP= 0.00E+00 SK= 0.00E+00
     1270 T=  2006. E= -.29573644E+05 F= -.31402821E+05 EK= 0.18292E+04 SP= 0.00E+00 SK= 0.00E+00
     1280 T=  1994. E= -.29573597E+05 F= -.31391707E+05 EK= 0.18181E+04 SP= 0.00E+00 SK= 0.00E+00
     1290 T=  2009. E= -.29573596E+05 F= -.31405928E+05 EK= 0.18323E+04 SP= 0.00E+00 SK= 0.00E+00
     1300 T=  2046. E= -.29573680E+05 F= -.31439432E+05 EK= 0.18658E+04 SP= 0.00E+00 SK= 0.00E+00
     1310 T=  2016. E= -.29573670E+05 F= -.31412039E+05 EK= 0.18384E+04 SP= 0.00E+00 SK= 0.00E+00
     1320 T=  1980. E= -.29573601E+05 F= -.31379650E+05 EK= 0.18060E+04 SP= 0.00E+00 SK= 0.00E+00
     1330 T=  2032. E= -.29573744E+05 F= -.31426693E+05 EK= 0.18529E+04 SP= 0.00E+00 SK= 0.00E+00
     1340 T=  2002. E= -.29573611E+05 F= -.31399580E+05 EK= 0.18260E+04 SP= 0.00E+00 SK= 0.00E+00
     1350 T=  1968. E= -.29573632E+05 F= -.31368281E+05 EK= 0.17946E+04 SP= 0.00E+00 SK= 0.00E+00
     1360 T=  1957. E= -.29573604E+05 F= -.31358015E+05 EK= 0.17844E+04 SP= 0.00E+00 SK= 0.00E+00
     1370 T=  2000. E= -.29573706E+05 F= -.31397751E+05 EK= 0.18240E+04 SP= 0.00E+00 SK= 0.00E+00
     1380 T=  1984. E= -.29573588E+05 F= -.31382434E+05 EK= 0.18088E+04 SP= 0.00E+00 SK= 0.00E+00
     1390 T=  2006. E= -.29573679E+05 F= -.31402765E+05 EK= 0.18291E+04 SP= 0.00E+00 SK= 0.00E+00
     1400 T=  2009. E= -.29573657E+05 F= -.31405913E+05 EK= 0.18323E+04 SP= 0.00E+00 SK= 0.00E+00
     1410 T=  2030. E= -.29573647E+05 F= -.31425004E+05 EK= 0.18514E+04 SP= 0.00E+00 SK= 0.00E+00
     1420 T=  2036. E= -.29573662E+05 F= -.31430126E+05 EK= 0.18565E+04 SP= 0.00E+00 SK= 0.00E+00
     1430 T=  2002. E= -.29573595E+05 F= -.31399294E+05 EK= 0.18257E+04 SP= 0.00E+00 SK= 0.00E+00
     1440 T=  2004. E= -.29573643E+05 F= -.31401278E+05 EK= 0.18276E+04 SP= 0.00E+00 SK= 0.00E+00
     1450 T=  2010. E= -.29573654E+05 F= -.31406483E+05 EK= 0.18328E+04 SP= 0.00E+00 SK= 0.00E+00
     1460 T=  1983. E= -.29573569E+05 F= -.31382042E+05 EK= 0.18085E+04 SP= 0.00E+00 SK= 0.00E+00
     1470 T=  1996. E= -.29573572E+05 F= -.31393818E+05 EK= 0.18202E+04 SP= 0.00E+00 SK= 0.00E+00
     1480 T=  1989. E= -.29573528E+05 F= -.31387659E+05 EK= 0.18141E+04 SP= 0.00E+00 SK= 0.00E+00
     1490 T=  1985. E= -.29573521E+05 F= -.31383777E+05 EK= 0.18103E+04 SP= 0.00E+00 SK= 0.00E+00
     1500 T=  1999. E= -.29573551E+05 F= -.31396226E+05 EK= 0.18227E+04 SP= 0.00E+00 SK= 0.00E+00
     1510 T=  2013. E= -.29573590E+05 F= -.31409171E+05 EK= 0.18356E+04 SP= 0.00E+00 SK= 0.00E+00
     1520 T=  1991. E= -.29573480E+05 F= -.31388780E+05 EK= 0.18153E+04 SP= 0.00E+00 SK= 0.00E+00
     1530 T=  2003. E= -.29573568E+05 F= -.31399981E+05 EK= 0.18264E+04 SP= 0.00E+00 SK= 0.00E+00
     1540 T=  1976. E= -.29573491E+05 F= -.31375717E+05 EK= 0.18022E+04 SP= 0.00E+00 SK= 0.00E+00
     1550 T=  1976. E= -.29573469E+05 F= -.31375309E+05 EK= 0.18018E+04 SP= 0.00E+00 SK= 0.00E+00
     1560 T=  1998. E= -.29573514E+05 F= -.31395757E+05 EK= 0.18222E+04 SP= 0.00E+00 SK= 0.00E+00
Randomizing velocities, T =  4000.
     1570 T=  2021. E= -.29564462E+05 F= -.31407460E+05 EK= 0.18430E+04 SP= 0.00E+00 SK= 0.00E+00
     1580 T=  1994. E= -.29564318E+05 F= -.31383054E+05 EK= 0.18187E+04 SP= 0.00E+00 SK= 0.00E+00
     1590 T=  1976. E= -.29564356E+05 F= -.31366611E+05 EK= 0.18023E+04 SP= 0.00E+00 SK= 0.00E+00
     1600 T=  1985. E= -.29564348E+05 F= -.31374096E+05 EK= 0.18097E+04 SP= 0.00E+00 SK= 0.00E+00
     1610 T=  2004. E= -.29564361E+05 F= -.31392185E+05 EK= 0.18278E+04 SP= 0.00E+00 SK= 0.00E+00
     1620 T=  2015. E= -.29564292E+05 F= -.31401800E+05 EK= 0.18375E+04 SP= 0.00E+00 SK= 0.00E+00
     1630 T=  2016. E= -.29564345E+05 F= -.31402902E+05 EK= 0.18386E+04 SP= 0.00E+00 SK= 0.00E+00
     1640 T=  1999. E= -.29564298E+05 F= -.31386873E+05 EK= 0.18226E+04 SP= 0.00E+00 SK= 0.00E+00
     1650 T=  2004. E= -.29564322E+05 F= -.31392099E+05 EK= 0.18278E+04 SP= 0.00E+00 SK= 0.00E+00
     1660 T=  2003. E= -.29564331E+05 F= -.31390826E+05 EK= 0.18265E+04 SP= 0.00E+00 SK= 0.00E+00
     1670 T=  1991. E= -.29564258E+05 F= -.31379702E+05 EK= 0.18154E+04 SP= 0.00E+00 SK= 0.00E+00
     1680 T=  2032. E= -.29564348E+05 F= -.31417410E+05 EK= 0.18531E+04 SP= 0.00E+00 SK= 0.00E+00
     1690 T=  2008. E= -.29564337E+05 F= -.31395235E+05 EK= 0.18309E+04 SP= 0.00E+00 SK= 0.00E+00
     1700 T=  1971. E= -.29564327E+05 F= -.31361651E+05 EK= 0.17973E+04 SP= 0.00E+00 SK= 0.00E+00
     1710 T=  1979. E= -.29564312E+05 F= -.31369265E+05 EK= 0.18050E+04 SP= 0.00E+00 SK= 0.00E+00
     1720 T=  2019. E= -.29564356E+05 F= -.31405269E+05 EK= 0.18409E+04 SP= 0.00E+00 SK= 0.00E+00
     1730 T=  1997. E= -.29564238E+05 F= -.31385823E+05 EK= 0.18216E+04 SP= 0.00E+00 SK= 0.00E+00
     1740 T=  1993. E= -.29564304E+05 F= -.31381998E+05 EK= 0.18177E+04 SP= 0.00E+00 SK= 0.00E+00
     1750 T=  1985. E= -.29564252E+05 F= -.31374271E+05 EK= 0.18100E+04 SP= 0.00E+00 SK= 0.00E+00
     1760 T=  2022. E= -.29564335E+05 F= -.31408648E+05 EK= 0.18443E+04 SP= 0.00E+00 SK= 0.00E+00
Randomizing velocities, T =  4000.
     1770 T=  2015. E= -.29614611E+05 F= -.31451884E+05 EK= 0.18373E+04 SP= 0.00E+00 SK= 0.00E+00
     1780 T=  1998. E= -.29614422E+05 F= -.31436752E+05 EK= 0.18223E+04 SP= 0.00E+00 SK= 0.00E+00
     1790 T=  2004. E= -.29614488E+05 F= -.31441757E+05 EK= 0.18273E+04 SP= 0.00E+00 SK= 0.00E+00
     1800 T=  1996. E= -.29614533E+05 F= -.31434848E+05 EK= 0.18203E+04 SP= 0.00E+00 SK= 0.00E+00
Randomizing velocities, T =  4000.
     1810 T=  2077. E= -.29555905E+05 F= -.31449859E+05 EK= 0.18940E+04 SP= 0.00E+00 SK= 0.00E+00
     1820 T=  2020. E= -.29555651E+05 F= -.31398174E+05 EK= 0.18425E+04 SP= 0.00E+00 SK= 0.00E+00
     1830 T=  1994. E= -.29555756E+05 F= -.31373798E+05 EK= 0.18180E+04 SP= 0.00E+00 SK= 0.00E+00
     1840 T=  2021. E= -.29555764E+05 F= -.31398581E+05 EK= 0.18428E+04 SP= 0.00E+00 SK= 0.00E+00
     1850 T=  2022. E= -.29555810E+05 F= -.31400021E+05 EK= 0.18442E+04 SP= 0.00E+00 SK= 0.00E+00
     1860 T=  1947. E= -.29555605E+05 F= -.31331380E+05 EK= 0.17758E+04 SP= 0.00E+00 SK= 0.00E+00
     1870 T=  2007. E= -.29555754E+05 F= -.31386128E+05 EK= 0.18304E+04 SP= 0.00E+00 SK= 0.00E+00
     1880 T=  2017. E= -.29555789E+05 F= -.31395481E+05 EK= 0.18397E+04 SP= 0.00E+00 SK= 0.00E+00
     1890 T=  1975. E= -.29555684E+05 F= -.31356465E+05 EK= 0.18008E+04 SP= 0.00E+00 SK= 0.00E+00
     1900 T=  2012. E= -.29555768E+05 F= -.31390452E+05 EK= 0.18347E+04 SP= 0.00E+00 SK= 0.00E+00
     1910 T=  2037. E= -.29555782E+05 F= -.31413336E+05 EK= 0.18576E+04 SP= 0.00E+00 SK= 0.00E+00
     1920 T=  2023. E= -.29555703E+05 F= -.31400794E+05 EK= 0.18451E+04 SP= 0.00E+00 SK= 0.00E+00
     1930 T=  2055. E= -.29555798E+05 F= -.31430051E+05 EK= 0.18743E+04 SP= 0.00E+00 SK= 0.00E+00
     1940 T=  2025. E= -.29555778E+05 F= -.31402232E+05 EK= 0.18465E+04 SP= 0.00E+00 SK= 0.00E+00
     1950 T=  1986. E= -.29555728E+05 F= -.31367130E+05 EK= 0.18114E+04 SP= 0.00E+00 SK= 0.00E+00
     1960 T=  2000. E= -.29555820E+05 F= -.31379908E+05 EK= 0.18241E+04 SP= 0.00E+00 SK= 0.00E+00
     1970 T=  1978. E= -.29555775E+05 F= -.31359866E+05 EK= 0.18041E+04 SP= 0.00E+00 SK= 0.00E+00
     1980 T=  1974. E= -.29555739E+05 F= -.31355702E+05 EK= 0.18000E+04 SP= 0.00E+00 SK= 0.00E+00
     1990 T=  2025. E= -.29555851E+05 F= -.31402757E+05 EK= 0.18469E+04 SP= 0.00E+00 SK= 0.00E+00
At line 1940 of file md.f90
Fortran runtime error: Unit number is negative and unit was not already opened with OPEN(NEWUNIT=...)

Error termination. Backtrace:
At line 1940 of file md.f90
Fortran runtime error: Unit number is negative and unit was not already opened with OPEN(NEWUNIT=...)

Error termination. Backtrace:
At line 1940 of file md.f90
Fortran runtime error: Unit number is negative and unit was not already opened with OPEN(NEWUNIT=...)

Error termination. Backtrace:
At line 1940 of file md.f90
Fortran runtime error: Unit number is negative and unit was not already opened with OPEN(NEWUNIT=...)

Error termination. Backtrace:
At line 1940 of file md.f90
Fortran runtime error: Unit number is negative and unit was not already opened with OPEN(NEWUNIT=...)

Error termination. Backtrace:
     2000 T=  2011. E= -.29555766E+05 F= -.31389444E+05 EK= 0.18337E+04 SP= 0.00E+00 SK= 0.00E+00
Rc and Rl:   5.500000  7.321000

Average number of steps between two list updates:  20.20
Average number of atoms in the shell:     0.01
#0  0x7f364a860d11 in ???
#1  0x7f364a861859 in ???
#2  0x7f364a86253f in ???
#3  0x55bbbd9530bc in ???
#4  0x55bbbd94e92e in ???
#5  0x7f364a4f7082 in __libc_start_main
	at ../csu/libc-start.c:308
#6  0x55bbbd94e96d in ???
#7  0xffffffffffffffff in ???
#0  0x7fbb93cb0d11 in ???
#1  0x7fbb93cb1859 in ???
#2  0x7fbb93cb253f in ???
#3  0x55e567b0f0bc in ???
#4  0x55e567b0a92e in ???
#5  0x7fbb93947082 in __libc_start_main
	at ../csu/libc-start.c:308
#6  0x55e567b0a96d in ???
#7  0xffffffffffffffff in ???
#0  0x7f16dd7c3d11 in ???
#1  0x7f16dd7c4859 in ???
#2  0x7f16dd7c553f in ???
#3  0x557baac360bc in ???
#4  0x557baac3192e in ???
#5  0x7f16dd45a082 in __libc_start_main
	at ../csu/libc-start.c:308
#6  0x557baac3196d in ???
#7  0xffffffffffffffff in ???
#0  0x7efd7e337d11 in ???
#1  0x7efd7e338859 in ???
#2  0x7efd7e33953f in ???
#3  0x562aa8f9f0bc in ???
#4  0x562aa8f9a92e in ???
#5  0x7efd7dfce082 in __libc_start_main
	at ../csu/libc-start.c:308
#6  0x562aa8f9a96d in ???
#7  0xffffffffffffffff in ???
