 running on    6 nodes
 distr:  one band on    1 nodes,    6 groups
 md.x 0.99
 POSCAR found :  1 types and     7056 ions
Rc and Rl:   5.500000  7.321000
 TIPO = eam     
 TIPO1 = uknown p
 Using EAM

 EAM parameters: 
 C  =   9.9634  EPS  = 0.2048  A  = 3.5678  M  = 3.127  N  =  6.366  R1 =   5.500000


 ----------------------------------------------------------------------------- 
|                                                                             |
|           W    W    AA    RRRRR   N    N  II  N    N   GGGG   !!!           |
|           W    W   A  A   R    R  NN   N  II  NN   N  G    G  !!!           |
|           W    W  A    A  R    R  N N  N  II  N N  N  G       !!!           |
|           W WW W  AAAAAA  RRRRR   N  N N  II  N  N N  G  GGG   !            |
|           WW  WW  A    A  R   R   N   NN  II  N   NN  G    G                |
|           W    W  A    A  R    R  N    N  II  N    N   GGGG   !!!           |
|                                                                             |
|      VASP found  21165 degrees of freedom                                   |
|      the temperature will equal 2*E(kin)/ (degrees of freedom)              |
|      this differs from previous releases, where T was 2*E(kin)/(3 NIONS).   |
|      The new definition is more consistent                                  |
|                                                                             |
 ----------------------------------------------------------------------------- 

 Random init:         362        7933
 Random init:         362        7933
 Random init:         362        7933
 Random init:         362        7933
 Random init:         362        7933
 Random init:         362        7933
 alloco spazio per displ
       10 T=  2548. E= -.30750380E+05 F= -.33074191E+05 EK= 0.23238E+04 SP= 0.00E+00 SK= 0.00E+00
       20 T=  2483. E= -.30750252E+05 F= -.33014518E+05 EK= 0.22643E+04 SP= 0.00E+00 SK= 0.00E+00
       30 T=  2466. E= -.30750321E+05 F= -.32999509E+05 EK= 0.22492E+04 SP= 0.00E+00 SK= 0.00E+00
       40 T=  2460. E= -.30750266E+05 F= -.32993811E+05 EK= 0.22435E+04 SP= 0.00E+00 SK= 0.00E+00
       50 T=  2481. E= -.30750370E+05 F= -.33013297E+05 EK= 0.22629E+04 SP= 0.00E+00 SK= 0.00E+00
       60 T=  2468. E= -.30750286E+05 F= -.33001095E+05 EK= 0.22508E+04 SP= 0.00E+00 SK= 0.00E+00
       70 T=  2483. E= -.30750353E+05 F= -.33015126E+05 EK= 0.22648E+04 SP= 0.00E+00 SK= 0.00E+00
       80 T=  2458. E= -.30750295E+05 F= -.32991606E+05 EK= 0.22413E+04 SP= 0.00E+00 SK= 0.00E+00
       90 T=  2475. E= -.30750369E+05 F= -.33007831E+05 EK= 0.22575E+04 SP= 0.00E+00 SK= 0.00E+00
      100 T=  2503. E= -.30750377E+05 F= -.33032541E+05 EK= 0.22822E+04 SP= 0.00E+00 SK= 0.00E+00
      110 T=  2505. E= -.30750357E+05 F= -.33035076E+05 EK= 0.22847E+04 SP= 0.00E+00 SK= 0.00E+00
      120 T=  2507. E= -.30750318E+05 F= -.33036818E+05 EK= 0.22865E+04 SP= 0.00E+00 SK= 0.00E+00
      130 T=  2474. E= -.30750284E+05 F= -.33006137E+05 EK= 0.22559E+04 SP= 0.00E+00 SK= 0.00E+00
      140 T=  2446. E= -.30750251E+05 F= -.32980986E+05 EK= 0.22307E+04 SP= 0.00E+00 SK= 0.00E+00
      150 T=  2450. E= -.30750295E+05 F= -.32984257E+05 EK= 0.22340E+04 SP= 0.00E+00 SK= 0.00E+00
      160 T=  2456. E= -.30750243E+05 F= -.32989918E+05 EK= 0.22397E+04 SP= 0.00E+00 SK= 0.00E+00
      170 T=  2484. E= -.30750331E+05 F= -.33015585E+05 EK= 0.22653E+04 SP= 0.00E+00 SK= 0.00E+00
      180 T=  2495. E= -.30750308E+05 F= -.33025795E+05 EK= 0.22755E+04 SP= 0.00E+00 SK= 0.00E+00
      190 T=  2495. E= -.30750328E+05 F= -.33025269E+05 EK= 0.22749E+04 SP= 0.00E+00 SK= 0.00E+00
      200 T=  2462. E= -.30750273E+05 F= -.32995454E+05 EK= 0.22452E+04 SP= 0.00E+00 SK= 0.00E+00
      210 T=  2448. E= -.30750289E+05 F= -.32982635E+05 EK= 0.22323E+04 SP= 0.00E+00 SK= 0.00E+00
      220 T=  2471. E= -.30750327E+05 F= -.33003283E+05 EK= 0.22530E+04 SP= 0.00E+00 SK= 0.00E+00
      230 T=  2492. E= -.30750340E+05 F= -.33022439E+05 EK= 0.22721E+04 SP= 0.00E+00 SK= 0.00E+00
      240 T=  2484. E= -.30750279E+05 F= -.33015097E+05 EK= 0.22648E+04 SP= 0.00E+00 SK= 0.00E+00
      250 T=  2502. E= -.30750308E+05 F= -.33032089E+05 EK= 0.22818E+04 SP= 0.00E+00 SK= 0.00E+00
      260 T=  2500. E= -.30750258E+05 F= -.33029927E+05 EK= 0.22797E+04 SP= 0.00E+00 SK= 0.00E+00
      270 T=  2482. E= -.30750267E+05 F= -.33013569E+05 EK= 0.22633E+04 SP= 0.00E+00 SK= 0.00E+00
      280 T=  2474. E= -.30750237E+05 F= -.33006255E+05 EK= 0.22560E+04 SP= 0.00E+00 SK= 0.00E+00
      290 T=  2472. E= -.30750252E+05 F= -.33004636E+05 EK= 0.22544E+04 SP= 0.00E+00 SK= 0.00E+00
      300 T=  2442. E= -.30750198E+05 F= -.32977337E+05 EK= 0.22271E+04 SP= 0.00E+00 SK= 0.00E+00
      310 T=  2458. E= -.30750247E+05 F= -.32992129E+05 EK= 0.22419E+04 SP= 0.00E+00 SK= 0.00E+00
      320 T=  2470. E= -.30750237E+05 F= -.33002512E+05 EK= 0.22523E+04 SP= 0.00E+00 SK= 0.00E+00
      330 T=  2463. E= -.30750197E+05 F= -.32996225E+05 EK= 0.22460E+04 SP= 0.00E+00 SK= 0.00E+00
      340 T=  2493. E= -.30750229E+05 F= -.33023258E+05 EK= 0.22730E+04 SP= 0.00E+00 SK= 0.00E+00
      350 T=  2512. E= -.30750229E+05 F= -.33040780E+05 EK= 0.22906E+04 SP= 0.00E+00 SK= 0.00E+00
      360 T=  2492. E= -.30750201E+05 F= -.33022991E+05 EK= 0.22728E+04 SP= 0.00E+00 SK= 0.00E+00
      370 T=  2480. E= -.30750211E+05 F= -.33011665E+05 EK= 0.22615E+04 SP= 0.00E+00 SK= 0.00E+00
      380 T=  2466. E= -.30750193E+05 F= -.32999472E+05 EK= 0.22493E+04 SP= 0.00E+00 SK= 0.00E+00
      390 T=  2488. E= -.30750193E+05 F= -.33019075E+05 EK= 0.22689E+04 SP= 0.00E+00 SK= 0.00E+00
      400 T=  2490. E= -.30750234E+05 F= -.33020573E+05 EK= 0.22703E+04 SP= 0.00E+00 SK= 0.00E+00
      410 T=  2462. E= -.30750205E+05 F= -.32995669E+05 EK= 0.22455E+04 SP= 0.00E+00 SK= 0.00E+00
      420 T=  2478. E= -.30750224E+05 F= -.33010448E+05 EK= 0.22602E+04 SP= 0.00E+00 SK= 0.00E+00
      430 T=  2486. E= -.30750247E+05 F= -.33017260E+05 EK= 0.22670E+04 SP= 0.00E+00 SK= 0.00E+00
      440 T=  2465. E= -.30750216E+05 F= -.32998207E+05 EK= 0.22480E+04 SP= 0.00E+00 SK= 0.00E+00
      450 T=  2467. E= -.30750177E+05 F= -.33000286E+05 EK= 0.22501E+04 SP= 0.00E+00 SK= 0.00E+00
      460 T=  2502. E= -.30750234E+05 F= -.33032349E+05 EK= 0.22821E+04 SP= 0.00E+00 SK= 0.00E+00
      470 T=  2478. E= -.30750232E+05 F= -.33009666E+05 EK= 0.22594E+04 SP= 0.00E+00 SK= 0.00E+00
      480 T=  2468. E= -.30750210E+05 F= -.33000587E+05 EK= 0.22504E+04 SP= 0.00E+00 SK= 0.00E+00
      490 T=  2518. E= -.30750370E+05 F= -.33046897E+05 EK= 0.22965E+04 SP= 0.00E+00 SK= 0.00E+00
      500 T=  2449. E= -.30750077E+05 F= -.32983628E+05 EK= 0.22336E+04 SP= 0.00E+00 SK= 0.00E+00
      510 T=  2493. E= -.30750180E+05 F= -.33023453E+05 EK= 0.22733E+04 SP= 0.00E+00 SK= 0.00E+00
      520 T=  2506. E= -.30750225E+05 F= -.33035913E+05 EK= 0.22857E+04 SP= 0.00E+00 SK= 0.00E+00
      530 T=  2448. E= -.30750086E+05 F= -.32982159E+05 EK= 0.22321E+04 SP= 0.00E+00 SK= 0.00E+00
      540 T=  2490. E= -.30750213E+05 F= -.33021125E+05 EK= 0.22709E+04 SP= 0.00E+00 SK= 0.00E+00
      550 T=  2487. E= -.30750151E+05 F= -.33017780E+05 EK= 0.22676E+04 SP= 0.00E+00 SK= 0.00E+00
      560 T=  2468. E= -.30750171E+05 F= -.33000639E+05 EK= 0.22505E+04 SP= 0.00E+00 SK= 0.00E+00
      570 T=  2465. E= -.30750156E+05 F= -.32997829E+05 EK= 0.22477E+04 SP= 0.00E+00 SK= 0.00E+00
      580 T=  2476. E= -.30750220E+05 F= -.33008264E+05 EK= 0.22580E+04 SP= 0.00E+00 SK= 0.00E+00
      590 T=  2472. E= -.30750228E+05 F= -.33004308E+05 EK= 0.22541E+04 SP= 0.00E+00 SK= 0.00E+00
      600 T=  2467. E= -.30750183E+05 F= -.33000181E+05 EK= 0.22500E+04 SP= 0.00E+00 SK= 0.00E+00
      610 T=  2481. E= -.30750233E+05 F= -.33012487E+05 EK= 0.22623E+04 SP= 0.00E+00 SK= 0.00E+00
      620 T=  2481. E= -.30750169E+05 F= -.33012430E+05 EK= 0.22623E+04 SP= 0.00E+00 SK= 0.00E+00
      630 T=  2488. E= -.30750181E+05 F= -.33019024E+05 EK= 0.22688E+04 SP= 0.00E+00 SK= 0.00E+00
      640 T=  2502. E= -.30750193E+05 F= -.33032131E+05 EK= 0.22819E+04 SP= 0.00E+00 SK= 0.00E+00
      650 T=  2485. E= -.30750224E+05 F= -.33016596E+05 EK= 0.22664E+04 SP= 0.00E+00 SK= 0.00E+00
      660 T=  2450. E= -.30750140E+05 F= -.32984243E+05 EK= 0.22341E+04 SP= 0.00E+00 SK= 0.00E+00
      670 T=  2475. E= -.30750238E+05 F= -.33007500E+05 EK= 0.22573E+04 SP= 0.00E+00 SK= 0.00E+00
      680 T=  2465. E= -.30750183E+05 F= -.32998079E+05 EK= 0.22479E+04 SP= 0.00E+00 SK= 0.00E+00
      690 T=  2456. E= -.30750194E+05 F= -.32990088E+05 EK= 0.22399E+04 SP= 0.00E+00 SK= 0.00E+00
      700 T=  2465. E= -.30750196E+05 F= -.32998341E+05 EK= 0.22481E+04 SP= 0.00E+00 SK= 0.00E+00
      710 T=  2493. E= -.30750275E+05 F= -.33024025E+05 EK= 0.22737E+04 SP= 0.00E+00 SK= 0.00E+00
      720 T=  2513. E= -.30750353E+05 F= -.33042260E+05 EK= 0.22919E+04 SP= 0.00E+00 SK= 0.00E+00
      730 T=  2479. E= -.30750314E+05 F= -.33011163E+05 EK= 0.22608E+04 SP= 0.00E+00 SK= 0.00E+00
      740 T=  2465. E= -.30750335E+05 F= -.32998151E+05 EK= 0.22478E+04 SP= 0.00E+00 SK= 0.00E+00
      750 T=  2485. E= -.30750433E+05 F= -.33016608E+05 EK= 0.22662E+04 SP= 0.00E+00 SK= 0.00E+00
      760 T=  2473. E= -.30750404E+05 F= -.33005726E+05 EK= 0.22553E+04 SP= 0.00E+00 SK= 0.00E+00
      770 T=  2464. E= -.30750463E+05 F= -.32997420E+05 EK= 0.22470E+04 SP= 0.00E+00 SK= 0.00E+00
      780 T=  2461. E= -.30750432E+05 F= -.32994393E+05 EK= 0.22440E+04 SP= 0.00E+00 SK= 0.00E+00
      790 T=  2487. E= -.30750500E+05 F= -.33018858E+05 EK= 0.22684E+04 SP= 0.00E+00 SK= 0.00E+00
      800 T=  2481. E= -.30750486E+05 F= -.33013362E+05 EK= 0.22629E+04 SP= 0.00E+00 SK= 0.00E+00
      810 T=  2469. E= -.30750455E+05 F= -.33001746E+05 EK= 0.22513E+04 SP= 0.00E+00 SK= 0.00E+00
      820 T=  2480. E= -.30750484E+05 F= -.33011791E+05 EK= 0.22613E+04 SP= 0.00E+00 SK= 0.00E+00
      830 T=  2497. E= -.30750591E+05 F= -.33028133E+05 EK= 0.22775E+04 SP= 0.00E+00 SK= 0.00E+00
      840 T=  2478. E= -.30750502E+05 F= -.33010726E+05 EK= 0.22602E+04 SP= 0.00E+00 SK= 0.00E+00
      850 T=  2501. E= -.30750513E+05 F= -.33031021E+05 EK= 0.22805E+04 SP= 0.00E+00 SK= 0.00E+00
      860 T=  2501. E= -.30750510E+05 F= -.33031511E+05 EK= 0.22810E+04 SP= 0.00E+00 SK= 0.00E+00
      870 T=  2466. E= -.30750423E+05 F= -.32999229E+05 EK= 0.22488E+04 SP= 0.00E+00 SK= 0.00E+00
      880 T=  2481. E= -.30750499E+05 F= -.33013060E+05 EK= 0.22626E+04 SP= 0.00E+00 SK= 0.00E+00
      890 T=  2476. E= -.30750513E+05 F= -.33008819E+05 EK= 0.22583E+04 SP= 0.00E+00 SK= 0.00E+00
      900 T=  2472. E= -.30750504E+05 F= -.33005153E+05 EK= 0.22546E+04 SP= 0.00E+00 SK= 0.00E+00
      910 T=  2487. E= -.30750547E+05 F= -.33018309E+05 EK= 0.22678E+04 SP= 0.00E+00 SK= 0.00E+00
      920 T=  2461. E= -.30750422E+05 F= -.32994316E+05 EK= 0.22439E+04 SP= 0.00E+00 SK= 0.00E+00
      930 T=  2489. E= -.30750540E+05 F= -.33020341E+05 EK= 0.22698E+04 SP= 0.00E+00 SK= 0.00E+00
      940 T=  2496. E= -.30750510E+05 F= -.33026799E+05 EK= 0.22763E+04 SP= 0.00E+00 SK= 0.00E+00
      950 T=  2496. E= -.30750498E+05 F= -.33026384E+05 EK= 0.22759E+04 SP= 0.00E+00 SK= 0.00E+00
      960 T=  2502. E= -.30750524E+05 F= -.33032028E+05 EK= 0.22815E+04 SP= 0.00E+00 SK= 0.00E+00
      970 T=  2494. E= -.30750532E+05 F= -.33025078E+05 EK= 0.22745E+04 SP= 0.00E+00 SK= 0.00E+00
      980 T=  2465. E= -.30750491E+05 F= -.32998343E+05 EK= 0.22479E+04 SP= 0.00E+00 SK= 0.00E+00
      990 T=  2477. E= -.30750534E+05 F= -.33009465E+05 EK= 0.22589E+04 SP= 0.00E+00 SK= 0.00E+00
     1000 T=  2465. E= -.30750509E+05 F= -.32998855E+05 EK= 0.22483E+04 SP= 0.00E+00 SK= 0.00E+00
     1010 T=  2426. E= -.30750428E+05 F= -.32963030E+05 EK= 0.22126E+04 SP= 0.00E+00 SK= 0.00E+00
     1020 T=  2452. E= -.30750449E+05 F= -.32986271E+05 EK= 0.22358E+04 SP= 0.00E+00 SK= 0.00E+00
     1030 T=  2490. E= -.30750451E+05 F= -.33021304E+05 EK= 0.22709E+04 SP= 0.00E+00 SK= 0.00E+00
     1040 T=  2504. E= -.30750433E+05 F= -.33033552E+05 EK= 0.22831E+04 SP= 0.00E+00 SK= 0.00E+00
     1050 T=  2482. E= -.30750415E+05 F= -.33013444E+05 EK= 0.22630E+04 SP= 0.00E+00 SK= 0.00E+00
     1060 T=  2479. E= -.30750429E+05 F= -.33010870E+05 EK= 0.22604E+04 SP= 0.00E+00 SK= 0.00E+00
     1070 T=  2469. E= -.30750449E+05 F= -.33002404E+05 EK= 0.22520E+04 SP= 0.00E+00 SK= 0.00E+00
     1080 T=  2451. E= -.30750375E+05 F= -.32985406E+05 EK= 0.22350E+04 SP= 0.00E+00 SK= 0.00E+00
     1090 T=  2463. E= -.30750442E+05 F= -.32996771E+05 EK= 0.22463E+04 SP= 0.00E+00 SK= 0.00E+00
     1100 T=  2467. E= -.30750393E+05 F= -.33000168E+05 EK= 0.22498E+04 SP= 0.00E+00 SK= 0.00E+00
     1110 T=  2484. E= -.30750387E+05 F= -.33015230E+05 EK= 0.22648E+04 SP= 0.00E+00 SK= 0.00E+00
     1120 T=  2501. E= -.30750401E+05 F= -.33031030E+05 EK= 0.22806E+04 SP= 0.00E+00 SK= 0.00E+00
     1130 T=  2508. E= -.30750405E+05 F= -.33037687E+05 EK= 0.22873E+04 SP= 0.00E+00 SK= 0.00E+00
     1140 T=  2491. E= -.30750456E+05 F= -.33022360E+05 EK= 0.22719E+04 SP= 0.00E+00 SK= 0.00E+00
     1150 T=  2453. E= -.30750402E+05 F= -.32987138E+05 EK= 0.22367E+04 SP= 0.00E+00 SK= 0.00E+00
     1160 T=  2470. E= -.30750466E+05 F= -.33003382E+05 EK= 0.22529E+04 SP= 0.00E+00 SK= 0.00E+00
     1170 T=  2473. E= -.30750451E+05 F= -.33005329E+05 EK= 0.22549E+04 SP= 0.00E+00 SK= 0.00E+00
     1180 T=  2476. E= -.30750447E+05 F= -.33008583E+05 EK= 0.22581E+04 SP= 0.00E+00 SK= 0.00E+00
     1190 T=  2477. E= -.30750445E+05 F= -.33009493E+05 EK= 0.22590E+04 SP= 0.00E+00 SK= 0.00E+00
     1200 T=  2473. E= -.30750448E+05 F= -.33006035E+05 EK= 0.22556E+04 SP= 0.00E+00 SK= 0.00E+00
     1210 T=  2473. E= -.30750389E+05 F= -.33006000E+05 EK= 0.22556E+04 SP= 0.00E+00 SK= 0.00E+00
     1220 T=  2477. E= -.30750386E+05 F= -.33009588E+05 EK= 0.22592E+04 SP= 0.00E+00 SK= 0.00E+00
     1230 T=  2467. E= -.30750324E+05 F= -.33000518E+05 EK= 0.22502E+04 SP= 0.00E+00 SK= 0.00E+00
     1240 T=  2483. E= -.30750355E+05 F= -.33014426E+05 EK= 0.22641E+04 SP= 0.00E+00 SK= 0.00E+00
     1250 T=  2510. E= -.30750458E+05 F= -.33039726E+05 EK= 0.22893E+04 SP= 0.00E+00 SK= 0.00E+00
     1260 T=  2470. E= -.30750347E+05 F= -.33003167E+05 EK= 0.22528E+04 SP= 0.00E+00 SK= 0.00E+00
     1270 T=  2483. E= -.30750350E+05 F= -.33015056E+05 EK= 0.22647E+04 SP= 0.00E+00 SK= 0.00E+00
     1280 T=  2507. E= -.30750412E+05 F= -.33036943E+05 EK= 0.22865E+04 SP= 0.00E+00 SK= 0.00E+00
     1290 T=  2466. E= -.30750385E+05 F= -.32999334E+05 EK= 0.22489E+04 SP= 0.00E+00 SK= 0.00E+00
     1300 T=  2444. E= -.30750348E+05 F= -.32979077E+05 EK= 0.22287E+04 SP= 0.00E+00 SK= 0.00E+00
     1310 T=  2487. E= -.30750415E+05 F= -.33018818E+05 EK= 0.22684E+04 SP= 0.00E+00 SK= 0.00E+00
     1320 T=  2489. E= -.30750422E+05 F= -.33019793E+05 EK= 0.22694E+04 SP= 0.00E+00 SK= 0.00E+00
     1330 T=  2465. E= -.30750376E+05 F= -.32998681E+05 EK= 0.22483E+04 SP= 0.00E+00 SK= 0.00E+00
     1340 T=  2512. E= -.30750471E+05 F= -.33040869E+05 EK= 0.22904E+04 SP= 0.00E+00 SK= 0.00E+00
     1350 T=  2500. E= -.30750463E+05 F= -.33030464E+05 EK= 0.22800E+04 SP= 0.00E+00 SK= 0.00E+00
     1360 T=  2465. E= -.30750362E+05 F= -.32998255E+05 EK= 0.22479E+04 SP= 0.00E+00 SK= 0.00E+00
     1370 T=  2492. E= -.30750454E+05 F= -.33023211E+05 EK= 0.22728E+04 SP= 0.00E+00 SK= 0.00E+00
     1380 T=  2488. E= -.30750358E+05 F= -.33019429E+05 EK= 0.22691E+04 SP= 0.00E+00 SK= 0.00E+00
     1390 T=  2473. E= -.30750360E+05 F= -.33005799E+05 EK= 0.22554E+04 SP= 0.00E+00 SK= 0.00E+00
     1400 T=  2466. E= -.30750401E+05 F= -.32999324E+05 EK= 0.22489E+04 SP= 0.00E+00 SK= 0.00E+00
     1410 T=  2445. E= -.30750391E+05 F= -.32980056E+05 EK= 0.22297E+04 SP= 0.00E+00 SK= 0.00E+00
     1420 T=  2436. E= -.30750392E+05 F= -.32972265E+05 EK= 0.22219E+04 SP= 0.00E+00 SK= 0.00E+00
     1430 T=  2462. E= -.30750355E+05 F= -.32995442E+05 EK= 0.22451E+04 SP= 0.00E+00 SK= 0.00E+00
     1440 T=  2500. E= -.30750448E+05 F= -.33030549E+05 EK= 0.22801E+04 SP= 0.00E+00 SK= 0.00E+00
     1450 T=  2470. E= -.30750366E+05 F= -.33003214E+05 EK= 0.22528E+04 SP= 0.00E+00 SK= 0.00E+00
     1460 T=  2478. E= -.30750431E+05 F= -.33009972E+05 EK= 0.22595E+04 SP= 0.00E+00 SK= 0.00E+00
     1470 T=  2499. E= -.30750425E+05 F= -.33029177E+05 EK= 0.22788E+04 SP= 0.00E+00 SK= 0.00E+00
     1480 T=  2522. E= -.30750487E+05 F= -.33050252E+05 EK= 0.22998E+04 SP= 0.00E+00 SK= 0.00E+00
     1490 T=  2493. E= -.30750467E+05 F= -.33023684E+05 EK= 0.22732E+04 SP= 0.00E+00 SK= 0.00E+00
     1500 T=  2447. E= -.30750441E+05 F= -.32981735E+05 EK= 0.22313E+04 SP= 0.00E+00 SK= 0.00E+00
     1510 T=  2445. E= -.30750442E+05 F= -.32980055E+05 EK= 0.22296E+04 SP= 0.00E+00 SK= 0.00E+00
     1520 T=  2480. E= -.30750454E+05 F= -.33012266E+05 EK= 0.22618E+04 SP= 0.00E+00 SK= 0.00E+00
     1530 T=  2475. E= -.30750373E+05 F= -.33007107E+05 EK= 0.22567E+04 SP= 0.00E+00 SK= 0.00E+00
     1540 T=  2470. E= -.30750425E+05 F= -.33002726E+05 EK= 0.22523E+04 SP= 0.00E+00 SK= 0.00E+00
     1550 T=  2465. E= -.30750331E+05 F= -.32998368E+05 EK= 0.22480E+04 SP= 0.00E+00 SK= 0.00E+00
     1560 T=  2511. E= -.30750411E+05 F= -.33040217E+05 EK= 0.22898E+04 SP= 0.00E+00 SK= 0.00E+00
     1570 T=  2497. E= -.30750380E+05 F= -.33027485E+05 EK= 0.22771E+04 SP= 0.00E+00 SK= 0.00E+00
     1580 T=  2468. E= -.30750320E+05 F= -.33001252E+05 EK= 0.22509E+04 SP= 0.00E+00 SK= 0.00E+00
     1590 T=  2471. E= -.30750329E+05 F= -.33004077E+05 EK= 0.22537E+04 SP= 0.00E+00 SK= 0.00E+00
     1600 T=  2478. E= -.30750363E+05 F= -.33010087E+05 EK= 0.22597E+04 SP= 0.00E+00 SK= 0.00E+00
     1610 T=  2473. E= -.30750353E+05 F= -.33005494E+05 EK= 0.22551E+04 SP= 0.00E+00 SK= 0.00E+00
     1620 T=  2484. E= -.30750342E+05 F= -.33015645E+05 EK= 0.22653E+04 SP= 0.00E+00 SK= 0.00E+00
     1630 T=  2511. E= -.30750353E+05 F= -.33039783E+05 EK= 0.22894E+04 SP= 0.00E+00 SK= 0.00E+00
     1640 T=  2484. E= -.30750318E+05 F= -.33015759E+05 EK= 0.22654E+04 SP= 0.00E+00 SK= 0.00E+00
     1650 T=  2478. E= -.30750359E+05 F= -.33010285E+05 EK= 0.22599E+04 SP= 0.00E+00 SK= 0.00E+00
     1660 T=  2491. E= -.30750426E+05 F= -.33021926E+05 EK= 0.22715E+04 SP= 0.00E+00 SK= 0.00E+00
     1670 T=  2461. E= -.30750338E+05 F= -.32994361E+05 EK= 0.22440E+04 SP= 0.00E+00 SK= 0.00E+00
     1680 T=  2458. E= -.30750324E+05 F= -.32992215E+05 EK= 0.22419E+04 SP= 0.00E+00 SK= 0.00E+00
     1690 T=  2490. E= -.30750367E+05 F= -.33020828E+05 EK= 0.22705E+04 SP= 0.00E+00 SK= 0.00E+00
     1700 T=  2488. E= -.30750392E+05 F= -.33019159E+05 EK= 0.22688E+04 SP= 0.00E+00 SK= 0.00E+00
     1710 T=  2454. E= -.30750274E+05 F= -.32987735E+05 EK= 0.22375E+04 SP= 0.00E+00 SK= 0.00E+00
     1720 T=  2496. E= -.30750350E+05 F= -.33026377E+05 EK= 0.22760E+04 SP= 0.00E+00 SK= 0.00E+00
     1730 T=  2485. E= -.30750285E+05 F= -.33016240E+05 EK= 0.22660E+04 SP= 0.00E+00 SK= 0.00E+00
     1740 T=  2450. E= -.30750233E+05 F= -.32984704E+05 EK= 0.22345E+04 SP= 0.00E+00 SK= 0.00E+00
     1750 T=  2470. E= -.30750317E+05 F= -.33002743E+05 EK= 0.22524E+04 SP= 0.00E+00 SK= 0.00E+00
     1760 T=  2484. E= -.30750292E+05 F= -.33015390E+05 EK= 0.22651E+04 SP= 0.00E+00 SK= 0.00E+00
     1770 T=  2489. E= -.30750258E+05 F= -.33019820E+05 EK= 0.22696E+04 SP= 0.00E+00 SK= 0.00E+00
     1780 T=  2498. E= -.30750235E+05 F= -.33027797E+05 EK= 0.22776E+04 SP= 0.00E+00 SK= 0.00E+00
     1790 T=  2501. E= -.30750252E+05 F= -.33030768E+05 EK= 0.22805E+04 SP= 0.00E+00 SK= 0.00E+00
     1800 T=  2494. E= -.30750228E+05 F= -.33024739E+05 EK= 0.22745E+04 SP= 0.00E+00 SK= 0.00E+00
     1810 T=  2470. E= -.30750181E+05 F= -.33002776E+05 EK= 0.22526E+04 SP= 0.00E+00 SK= 0.00E+00
     1820 T=  2488. E= -.30750234E+05 F= -.33019505E+05 EK= 0.22693E+04 SP= 0.00E+00 SK= 0.00E+00
     1830 T=  2482. E= -.30750187E+05 F= -.33013737E+05 EK= 0.22635E+04 SP= 0.00E+00 SK= 0.00E+00
     1840 T=  2457. E= -.30750124E+05 F= -.32990985E+05 EK= 0.22409E+04 SP= 0.00E+00 SK= 0.00E+00
     1850 T=  2474. E= -.30750145E+05 F= -.33006033E+05 EK= 0.22559E+04 SP= 0.00E+00 SK= 0.00E+00
     1860 T=  2489. E= -.30750133E+05 F= -.33019973E+05 EK= 0.22698E+04 SP= 0.00E+00 SK= 0.00E+00
     1870 T=  2485. E= -.30750124E+05 F= -.33016200E+05 EK= 0.22661E+04 SP= 0.00E+00 SK= 0.00E+00
     1880 T=  2454. E= -.30750089E+05 F= -.32988052E+05 EK= 0.22380E+04 SP= 0.00E+00 SK= 0.00E+00
     1890 T=  2467. E= -.30750100E+05 F= -.32999993E+05 EK= 0.22499E+04 SP= 0.00E+00 SK= 0.00E+00
     1900 T=  2475. E= -.30750048E+05 F= -.33007456E+05 EK= 0.22574E+04 SP= 0.00E+00 SK= 0.00E+00
     1910 T=  2496. E= -.30750139E+05 F= -.33026657E+05 EK= 0.22765E+04 SP= 0.00E+00 SK= 0.00E+00
     1920 T=  2479. E= -.30750110E+05 F= -.33011029E+05 EK= 0.22609E+04 SP= 0.00E+00 SK= 0.00E+00
     1930 T=  2453. E= -.30750040E+05 F= -.32986748E+05 EK= 0.22367E+04 SP= 0.00E+00 SK= 0.00E+00
     1940 T=  2495. E= -.30750172E+05 F= -.33025432E+05 EK= 0.22753E+04 SP= 0.00E+00 SK= 0.00E+00
     1950 T=  2477. E= -.30750098E+05 F= -.33008764E+05 EK= 0.22587E+04 SP= 0.00E+00 SK= 0.00E+00
     1960 T=  2492. E= -.30750163E+05 F= -.33022839E+05 EK= 0.22727E+04 SP= 0.00E+00 SK= 0.00E+00
     1970 T=  2474. E= -.30750128E+05 F= -.33006303E+05 EK= 0.22562E+04 SP= 0.00E+00 SK= 0.00E+00
     1980 T=  2449. E= -.30750105E+05 F= -.32983398E+05 EK= 0.22333E+04 SP= 0.00E+00 SK= 0.00E+00
     1990 T=  2480. E= -.30750153E+05 F= -.33012028E+05 EK= 0.22619E+04 SP= 0.00E+00 SK= 0.00E+00
At line 1940 of file md.f90
Fortran runtime error: Unit number is negative and unit was not already opened with OPEN(NEWUNIT=...)

Error termination. Backtrace:
At line 1940 of file md.f90
Fortran runtime error: Unit number is negative and unit was not already opened with OPEN(NEWUNIT=...)

Error termination. Backtrace:
At line 1940 of file md.f90
Fortran runtime error: Unit number is negative and unit was not already opened with OPEN(NEWUNIT=...)

Error termination. Backtrace:
At line 1940 of file md.f90
Fortran runtime error: Unit number is negative and unit was not already opened with OPEN(NEWUNIT=...)

Error termination. Backtrace:
At line 1940 of file md.f90
Fortran runtime error: Unit number is negative and unit was not already opened with OPEN(NEWUNIT=...)

Error termination. Backtrace:
     2000 T=  2466. E= -.30750086E+05 F= -.32999006E+05 EK= 0.22489E+04 SP= 0.00E+00 SK= 0.00E+00
Rc and Rl:   5.500000  7.321000

Average number of steps between two list updates:  25.32
Average number of atoms in the shell:     0.01
#0  0x7f5f1a4a5d11 in ???
#1  0x7f5f1a4a6859 in ???
#2  0x7f5f1a4a753f in ???
#3  0x55d00f22e0bc in ???
#4  0x55d00f22992e in ???
#5  0x7f5f1a13c082 in __libc_start_main
	at ../csu/libc-start.c:308
#6  0x55d00f22996d in ???
#7  0xffffffffffffffff in ???
#0  0x7f41d4c99d11 in ???
#1  0x7f41d4c9a859 in ???
#2  0x7f41d4c9b53f in ???
#3  0x563c973110bc in ???
#4  0x563c9730c92e in ???
#5  0x7f41d4930082 in __libc_start_main
	at ../csu/libc-start.c:308
#6  0x563c9730c96d in ???
#7  0xffffffffffffffff in ???
#0  0x7f879f441d11 in ???
#1  0x7f879f442859 in ???
#2  0x7f879f44353f in ???
#3  0x56149a66a0bc in ???
#4  0x56149a66592e in ???
#5  0x7f879f0d8082 in __libc_start_main
	at ../csu/libc-start.c:308
#6  0x56149a66596d in ???
#7  0xffffffffffffffff in ???
#0  0x7fbc26748d11 in ???
#1  0x7fbc26749859 in ???
#2  0x7fbc2674a53f in ???
#3  0x563c8c8400bc in ???
#4  0x563c8c83b92e in ???
#5  0x7fbc263df082 in __libc_start_main
	at ../csu/libc-start.c:308
#6  0x563c8c83b96d in ???
#7  0xffffffffffffffff in ???
