 running on    6 nodes
 distr:  one band on    1 nodes,    6 groups
 md.x 0.99
 POSCAR found :  1 types and     7056 ions
Rc and Rl:   5.500000  7.321000
 TIPO = eam     
 TIPO1 = uknown p
 Using EAM

 EAM parameters: 
 C  =   9.9634  EPS  = 0.2048  A  = 3.5678  M  = 3.127  N  =  6.366  R1 =   5.500000


 ----------------------------------------------------------------------------- 
|                                                                             |
|           W    W    AA    RRRRR   N    N  II  N    N   GGGG   !!!           |
|           W    W   A  A   R    R  NN   N  II  NN   N  G    G  !!!           |
|           W    W  A    A  R    R  N N  N  II  N N  N  G       !!!           |
|           W WW W  AAAAAA  RRRRR   N  N N  II  N  N N  G  GGG   !            |
|           WW  WW  A    A  R   R   N   NN  II  N   NN  G    G                |
|           W    W  A    A  R    R  N    N  II  N    N   GGGG   !!!           |
|                                                                             |
|      VASP found  21165 degrees of freedom                                   |
|      the temperature will equal 2*E(kin)/ (degrees of freedom)              |
|      this differs from previous releases, where T was 2*E(kin)/(3 NIONS).   |
|      The new definition is more consistent                                  |
|                                                                             |
 ----------------------------------------------------------------------------- 

 Random init:         331        7902
 alloco spazio per displ
 Random init:         331        7902
 Random init:         331        7902
 Random init:         331        7902
 Random init:         331        7902
 Random init:         331        7902
       10 T=  2094. E= -.29536991E+05 F= -.31446988E+05 EK= 0.19100E+04 SP= 0.00E+00 SK= 0.00E+00
       20 T=  2056. E= -.29536834E+05 F= -.31411584E+05 EK= 0.18747E+04 SP= 0.00E+00 SK= 0.00E+00
       30 T=  2065. E= -.29536846E+05 F= -.31419839E+05 EK= 0.18830E+04 SP= 0.00E+00 SK= 0.00E+00
       40 T=  2065. E= -.29536868E+05 F= -.31420162E+05 EK= 0.18833E+04 SP= 0.00E+00 SK= 0.00E+00
       50 T=  2033. E= -.29536811E+05 F= -.31390927E+05 EK= 0.18541E+04 SP= 0.00E+00 SK= 0.00E+00
       60 T=  2035. E= -.29536823E+05 F= -.31392528E+05 EK= 0.18557E+04 SP= 0.00E+00 SK= 0.00E+00
       70 T=  2041. E= -.29536848E+05 F= -.31398278E+05 EK= 0.18614E+04 SP= 0.00E+00 SK= 0.00E+00
       80 T=  2025. E= -.29536837E+05 F= -.31383110E+05 EK= 0.18463E+04 SP= 0.00E+00 SK= 0.00E+00
       90 T=  2034. E= -.29536828E+05 F= -.31391286E+05 EK= 0.18545E+04 SP= 0.00E+00 SK= 0.00E+00
      100 T=  2079. E= -.29536886E+05 F= -.31432842E+05 EK= 0.18960E+04 SP= 0.00E+00 SK= 0.00E+00
      110 T=  2074. E= -.29536912E+05 F= -.31428060E+05 EK= 0.18911E+04 SP= 0.00E+00 SK= 0.00E+00
      120 T=  2031. E= -.29536882E+05 F= -.31388937E+05 EK= 0.18521E+04 SP= 0.00E+00 SK= 0.00E+00
      130 T=  2053. E= -.29536895E+05 F= -.31409381E+05 EK= 0.18725E+04 SP= 0.00E+00 SK= 0.00E+00
      140 T=  2059. E= -.29536881E+05 F= -.31414990E+05 EK= 0.18781E+04 SP= 0.00E+00 SK= 0.00E+00
      150 T=  2059. E= -.29536908E+05 F= -.31414473E+05 EK= 0.18776E+04 SP= 0.00E+00 SK= 0.00E+00
      160 T=  2085. E= -.29536927E+05 F= -.31438644E+05 EK= 0.19017E+04 SP= 0.00E+00 SK= 0.00E+00
      170 T=  2065. E= -.29536907E+05 F= -.31420261E+05 EK= 0.18834E+04 SP= 0.00E+00 SK= 0.00E+00
      180 T=  2038. E= -.29536918E+05 F= -.31395309E+05 EK= 0.18584E+04 SP= 0.00E+00 SK= 0.00E+00
      190 T=  2042. E= -.29536980E+05 F= -.31398725E+05 EK= 0.18617E+04 SP= 0.00E+00 SK= 0.00E+00
      200 T=  2016. E= -.29536937E+05 F= -.31375556E+05 EK= 0.18386E+04 SP= 0.00E+00 SK= 0.00E+00
      210 T=  2026. E= -.29536980E+05 F= -.31384754E+05 EK= 0.18478E+04 SP= 0.00E+00 SK= 0.00E+00
      220 T=  2059. E= -.29537011E+05 F= -.31414672E+05 EK= 0.18777E+04 SP= 0.00E+00 SK= 0.00E+00
      230 T=  2058. E= -.29537032E+05 F= -.31413623E+05 EK= 0.18766E+04 SP= 0.00E+00 SK= 0.00E+00
      240 T=  2031. E= -.29536998E+05 F= -.31388713E+05 EK= 0.18517E+04 SP= 0.00E+00 SK= 0.00E+00
      250 T=  2047. E= -.29537029E+05 F= -.31403827E+05 EK= 0.18668E+04 SP= 0.00E+00 SK= 0.00E+00
      260 T=  2061. E= -.29537016E+05 F= -.31416188E+05 EK= 0.18792E+04 SP= 0.00E+00 SK= 0.00E+00
      270 T=  2040. E= -.29536969E+05 F= -.31397680E+05 EK= 0.18607E+04 SP= 0.00E+00 SK= 0.00E+00
      280 T=  2080. E= -.29537014E+05 F= -.31433906E+05 EK= 0.18969E+04 SP= 0.00E+00 SK= 0.00E+00
      290 T=  2087. E= -.29536972E+05 F= -.31440491E+05 EK= 0.19035E+04 SP= 0.00E+00 SK= 0.00E+00
      300 T=  2091. E= -.29536986E+05 F= -.31443810E+05 EK= 0.19068E+04 SP= 0.00E+00 SK= 0.00E+00
      310 T=  2083. E= -.29536979E+05 F= -.31436258E+05 EK= 0.18993E+04 SP= 0.00E+00 SK= 0.00E+00
      320 T=  2049. E= -.29536954E+05 F= -.31405557E+05 EK= 0.18686E+04 SP= 0.00E+00 SK= 0.00E+00
      330 T=  2060. E= -.29537030E+05 F= -.31415700E+05 EK= 0.18787E+04 SP= 0.00E+00 SK= 0.00E+00
      340 T=  2059. E= -.29536950E+05 F= -.31414628E+05 EK= 0.18777E+04 SP= 0.00E+00 SK= 0.00E+00
      350 T=  2086. E= -.29536977E+05 F= -.31439580E+05 EK= 0.19026E+04 SP= 0.00E+00 SK= 0.00E+00
      360 T=  2054. E= -.29536928E+05 F= -.31409796E+05 EK= 0.18729E+04 SP= 0.00E+00 SK= 0.00E+00
      370 T=  2048. E= -.29536912E+05 F= -.31404257E+05 EK= 0.18673E+04 SP= 0.00E+00 SK= 0.00E+00
      380 T=  2071. E= -.29536946E+05 F= -.31425431E+05 EK= 0.18885E+04 SP= 0.00E+00 SK= 0.00E+00
      390 T=  2059. E= -.29536929E+05 F= -.31414515E+05 EK= 0.18776E+04 SP= 0.00E+00 SK= 0.00E+00
      400 T=  2024. E= -.29536924E+05 F= -.31383000E+05 EK= 0.18461E+04 SP= 0.00E+00 SK= 0.00E+00
      410 T=  2029. E= -.29536862E+05 F= -.31387172E+05 EK= 0.18503E+04 SP= 0.00E+00 SK= 0.00E+00
      420 T=  2087. E= -.29537023E+05 F= -.31440537E+05 EK= 0.19035E+04 SP= 0.00E+00 SK= 0.00E+00
      430 T=  2047. E= -.29536891E+05 F= -.31403987E+05 EK= 0.18671E+04 SP= 0.00E+00 SK= 0.00E+00
      440 T=  2065. E= -.29536895E+05 F= -.31419789E+05 EK= 0.18829E+04 SP= 0.00E+00 SK= 0.00E+00
      450 T=  2127. E= -.29537087E+05 F= -.31477207E+05 EK= 0.19401E+04 SP= 0.00E+00 SK= 0.00E+00
      460 T=  2074. E= -.29536930E+05 F= -.31428007E+05 EK= 0.18911E+04 SP= 0.00E+00 SK= 0.00E+00
      470 T=  2049. E= -.29536986E+05 F= -.31405351E+05 EK= 0.18684E+04 SP= 0.00E+00 SK= 0.00E+00
      480 T=  2055. E= -.29537059E+05 F= -.31411129E+05 EK= 0.18741E+04 SP= 0.00E+00 SK= 0.00E+00
      490 T=  2046. E= -.29537018E+05 F= -.31402675E+05 EK= 0.18657E+04 SP= 0.00E+00 SK= 0.00E+00
      500 T=  2056. E= -.29537021E+05 F= -.31411947E+05 EK= 0.18749E+04 SP= 0.00E+00 SK= 0.00E+00
      510 T=  2064. E= -.29537102E+05 F= -.31419614E+05 EK= 0.18825E+04 SP= 0.00E+00 SK= 0.00E+00
      520 T=  2027. E= -.29536997E+05 F= -.31385468E+05 EK= 0.18485E+04 SP= 0.00E+00 SK= 0.00E+00
      530 T=  2059. E= -.29537052E+05 F= -.31414303E+05 EK= 0.18773E+04 SP= 0.00E+00 SK= 0.00E+00
      540 T=  2073. E= -.29537059E+05 F= -.31427252E+05 EK= 0.18902E+04 SP= 0.00E+00 SK= 0.00E+00
      550 T=  2047. E= -.29537019E+05 F= -.31404091E+05 EK= 0.18671E+04 SP= 0.00E+00 SK= 0.00E+00
      560 T=  2058. E= -.29537000E+05 F= -.31413445E+05 EK= 0.18764E+04 SP= 0.00E+00 SK= 0.00E+00
      570 T=  2110. E= -.29537061E+05 F= -.31461002E+05 EK= 0.19239E+04 SP= 0.00E+00 SK= 0.00E+00
      580 T=  2117. E= -.29537058E+05 F= -.31467882E+05 EK= 0.19308E+04 SP= 0.00E+00 SK= 0.00E+00
      590 T=  2073. E= -.29536945E+05 F= -.31427322E+05 EK= 0.18904E+04 SP= 0.00E+00 SK= 0.00E+00
      600 T=  2077. E= -.29537011E+05 F= -.31431490E+05 EK= 0.18945E+04 SP= 0.00E+00 SK= 0.00E+00
      610 T=  2048. E= -.29536971E+05 F= -.31404837E+05 EK= 0.18679E+04 SP= 0.00E+00 SK= 0.00E+00
      620 T=  2029. E= -.29536948E+05 F= -.31386914E+05 EK= 0.18500E+04 SP= 0.00E+00 SK= 0.00E+00
      630 T=  2055. E= -.29537008E+05 F= -.31410923E+05 EK= 0.18739E+04 SP= 0.00E+00 SK= 0.00E+00
      640 T=  2030. E= -.29536934E+05 F= -.31388101E+05 EK= 0.18512E+04 SP= 0.00E+00 SK= 0.00E+00
      650 T=  2043. E= -.29536995E+05 F= -.31399708E+05 EK= 0.18627E+04 SP= 0.00E+00 SK= 0.00E+00
      660 T=  2061. E= -.29536929E+05 F= -.31416116E+05 EK= 0.18792E+04 SP= 0.00E+00 SK= 0.00E+00
      670 T=  2079. E= -.29536967E+05 F= -.31432985E+05 EK= 0.18960E+04 SP= 0.00E+00 SK= 0.00E+00
      680 T=  2060. E= -.29536888E+05 F= -.31415095E+05 EK= 0.18782E+04 SP= 0.00E+00 SK= 0.00E+00
      690 T=  2094. E= -.29536980E+05 F= -.31446269E+05 EK= 0.19093E+04 SP= 0.00E+00 SK= 0.00E+00
      700 T=  2078. E= -.29536887E+05 F= -.31431962E+05 EK= 0.18951E+04 SP= 0.00E+00 SK= 0.00E+00
      710 T=  2067. E= -.29536887E+05 F= -.31422225E+05 EK= 0.18853E+04 SP= 0.00E+00 SK= 0.00E+00
Randomizing velocities, T =  4000.
      720 T=  2031. E= -.29575125E+05 F= -.31427354E+05 EK= 0.18522E+04 SP= 0.00E+00 SK= 0.00E+00
      730 T=  2094. E= -.29575202E+05 F= -.31485028E+05 EK= 0.19098E+04 SP= 0.00E+00 SK= 0.00E+00
      740 T=  2036. E= -.29575054E+05 F= -.31432167E+05 EK= 0.18571E+04 SP= 0.00E+00 SK= 0.00E+00
      750 T=  2042. E= -.29575064E+05 F= -.31437359E+05 EK= 0.18623E+04 SP= 0.00E+00 SK= 0.00E+00
      760 T=  2064. E= -.29575175E+05 F= -.31457570E+05 EK= 0.18824E+04 SP= 0.00E+00 SK= 0.00E+00
      770 T=  2024. E= -.29575091E+05 F= -.31421139E+05 EK= 0.18460E+04 SP= 0.00E+00 SK= 0.00E+00
      780 T=  2020. E= -.29575030E+05 F= -.31417351E+05 EK= 0.18423E+04 SP= 0.00E+00 SK= 0.00E+00
      790 T=  2080. E= -.29575155E+05 F= -.31472264E+05 EK= 0.18971E+04 SP= 0.00E+00 SK= 0.00E+00
      800 T=  2044. E= -.29575032E+05 F= -.31439296E+05 EK= 0.18643E+04 SP= 0.00E+00 SK= 0.00E+00
      810 T=  2018. E= -.29575060E+05 F= -.31415394E+05 EK= 0.18403E+04 SP= 0.00E+00 SK= 0.00E+00
      820 T=  2029. E= -.29575113E+05 F= -.31425011E+05 EK= 0.18499E+04 SP= 0.00E+00 SK= 0.00E+00
      830 T=  2025. E= -.29575075E+05 F= -.31421545E+05 EK= 0.18465E+04 SP= 0.00E+00 SK= 0.00E+00
      840 T=  2030. E= -.29575136E+05 F= -.31426628E+05 EK= 0.18515E+04 SP= 0.00E+00 SK= 0.00E+00
      850 T=  2009. E= -.29575062E+05 F= -.31407064E+05 EK= 0.18320E+04 SP= 0.00E+00 SK= 0.00E+00
      860 T=  2063. E= -.29575253E+05 F= -.31456194E+05 EK= 0.18809E+04 SP= 0.00E+00 SK= 0.00E+00
      870 T=  2032. E= -.29575120E+05 F= -.31428034E+05 EK= 0.18529E+04 SP= 0.00E+00 SK= 0.00E+00
      880 T=  2046. E= -.29575168E+05 F= -.31441380E+05 EK= 0.18662E+04 SP= 0.00E+00 SK= 0.00E+00
      890 T=  2074. E= -.29575175E+05 F= -.31466467E+05 EK= 0.18913E+04 SP= 0.00E+00 SK= 0.00E+00
      900 T=  2077. E= -.29575192E+05 F= -.31469328E+05 EK= 0.18941E+04 SP= 0.00E+00 SK= 0.00E+00
      910 T=  2051. E= -.29575132E+05 F= -.31445624E+05 EK= 0.18705E+04 SP= 0.00E+00 SK= 0.00E+00
      920 T=  2062. E= -.29575193E+05 F= -.31455494E+05 EK= 0.18803E+04 SP= 0.00E+00 SK= 0.00E+00
      930 T=  2044. E= -.29575143E+05 F= -.31439005E+05 EK= 0.18639E+04 SP= 0.00E+00 SK= 0.00E+00
      940 T=  2035. E= -.29575197E+05 F= -.31430927E+05 EK= 0.18557E+04 SP= 0.00E+00 SK= 0.00E+00
      950 T=  2026. E= -.29575157E+05 F= -.31422773E+05 EK= 0.18476E+04 SP= 0.00E+00 SK= 0.00E+00
      960 T=  2031. E= -.29575147E+05 F= -.31427235E+05 EK= 0.18521E+04 SP= 0.00E+00 SK= 0.00E+00
      970 T=  2029. E= -.29575121E+05 F= -.31425269E+05 EK= 0.18501E+04 SP= 0.00E+00 SK= 0.00E+00
      980 T=  2031. E= -.29575052E+05 F= -.31427126E+05 EK= 0.18521E+04 SP= 0.00E+00 SK= 0.00E+00
      990 T=  2084. E= -.29575178E+05 F= -.31475834E+05 EK= 0.19007E+04 SP= 0.00E+00 SK= 0.00E+00
     1000 T=  2055. E= -.29575104E+05 F= -.31449072E+05 EK= 0.18740E+04 SP= 0.00E+00 SK= 0.00E+00
     1010 T=  2036. E= -.29575152E+05 F= -.31431733E+05 EK= 0.18566E+04 SP= 0.00E+00 SK= 0.00E+00
     1020 T=  2023. E= -.29575117E+05 F= -.31420122E+05 EK= 0.18450E+04 SP= 0.00E+00 SK= 0.00E+00
     1030 T=  1983. E= -.29575045E+05 F= -.31382995E+05 EK= 0.18080E+04 SP= 0.00E+00 SK= 0.00E+00
Randomizing velocities, T =  4000.
     1040 T=  2007. E= -.29570114E+05 F= -.31400775E+05 EK= 0.18307E+04 SP= 0.00E+00 SK= 0.00E+00
     1050 T=  2044. E= -.29570097E+05 F= -.31434447E+05 EK= 0.18644E+04 SP= 0.00E+00 SK= 0.00E+00
     1060 T=  2023. E= -.29569994E+05 F= -.31415161E+05 EK= 0.18452E+04 SP= 0.00E+00 SK= 0.00E+00
     1070 T=  2080. E= -.29570155E+05 F= -.31467225E+05 EK= 0.18971E+04 SP= 0.00E+00 SK= 0.00E+00
     1080 T=  2078. E= -.29570135E+05 F= -.31465064E+05 EK= 0.18949E+04 SP= 0.00E+00 SK= 0.00E+00
     1090 T=  2051. E= -.29570043E+05 F= -.31440437E+05 EK= 0.18704E+04 SP= 0.00E+00 SK= 0.00E+00
     1100 T=  2056. E= -.29570055E+05 F= -.31444905E+05 EK= 0.18749E+04 SP= 0.00E+00 SK= 0.00E+00
     1110 T=  2053. E= -.29570061E+05 F= -.31442222E+05 EK= 0.18722E+04 SP= 0.00E+00 SK= 0.00E+00
     1120 T=  2058. E= -.29570137E+05 F= -.31446614E+05 EK= 0.18765E+04 SP= 0.00E+00 SK= 0.00E+00
     1130 T=  2001. E= -.29569956E+05 F= -.31394957E+05 EK= 0.18250E+04 SP= 0.00E+00 SK= 0.00E+00
     1140 T=  2026. E= -.29570047E+05 F= -.31417392E+05 EK= 0.18473E+04 SP= 0.00E+00 SK= 0.00E+00
     1150 T=  2039. E= -.29570024E+05 F= -.31429772E+05 EK= 0.18597E+04 SP= 0.00E+00 SK= 0.00E+00
     1160 T=  1998. E= -.29569930E+05 F= -.31392254E+05 EK= 0.18223E+04 SP= 0.00E+00 SK= 0.00E+00
     1170 T=  2018. E= -.29569997E+05 F= -.31409926E+05 EK= 0.18399E+04 SP= 0.00E+00 SK= 0.00E+00
     1180 T=  2046. E= -.29569952E+05 F= -.31435762E+05 EK= 0.18658E+04 SP= 0.00E+00 SK= 0.00E+00
     1190 T=  2057. E= -.29570037E+05 F= -.31445483E+05 EK= 0.18754E+04 SP= 0.00E+00 SK= 0.00E+00
     1200 T=  2023. E= -.29569922E+05 F= -.31415100E+05 EK= 0.18452E+04 SP= 0.00E+00 SK= 0.00E+00
     1210 T=  2086. E= -.29570054E+05 F= -.31471968E+05 EK= 0.19019E+04 SP= 0.00E+00 SK= 0.00E+00
     1220 T=  2092. E= -.29570037E+05 F= -.31477593E+05 EK= 0.19076E+04 SP= 0.00E+00 SK= 0.00E+00
     1230 T=  2047. E= -.29570062E+05 F= -.31436499E+05 EK= 0.18664E+04 SP= 0.00E+00 SK= 0.00E+00
     1240 T=  2038. E= -.29570044E+05 F= -.31428981E+05 EK= 0.18589E+04 SP= 0.00E+00 SK= 0.00E+00
     1250 T=  2065. E= -.29570163E+05 F= -.31453390E+05 EK= 0.18832E+04 SP= 0.00E+00 SK= 0.00E+00
     1260 T=  2021. E= -.29570070E+05 F= -.31413106E+05 EK= 0.18430E+04 SP= 0.00E+00 SK= 0.00E+00
     1270 T=  2018. E= -.29570062E+05 F= -.31410110E+05 EK= 0.18400E+04 SP= 0.00E+00 SK= 0.00E+00
     1280 T=  2045. E= -.29570152E+05 F= -.31434801E+05 EK= 0.18646E+04 SP= 0.00E+00 SK= 0.00E+00
     1290 T=  2002. E= -.29570019E+05 F= -.31395583E+05 EK= 0.18256E+04 SP= 0.00E+00 SK= 0.00E+00
Randomizing velocities, T =  4000.
     1300 T=  2022. E= -.29600082E+05 F= -.31444111E+05 EK= 0.18440E+04 SP= 0.00E+00 SK= 0.00E+00
     1310 T=  2074. E= -.29600055E+05 F= -.31491833E+05 EK= 0.18918E+04 SP= 0.00E+00 SK= 0.00E+00
     1320 T=  2024. E= -.29599963E+05 F= -.31445598E+05 EK= 0.18456E+04 SP= 0.00E+00 SK= 0.00E+00
     1330 T=  2042. E= -.29600067E+05 F= -.31462063E+05 EK= 0.18620E+04 SP= 0.00E+00 SK= 0.00E+00
     1340 T=  2016. E= -.29599960E+05 F= -.31438367E+05 EK= 0.18384E+04 SP= 0.00E+00 SK= 0.00E+00
     1350 T=  2028. E= -.29600060E+05 F= -.31449095E+05 EK= 0.18490E+04 SP= 0.00E+00 SK= 0.00E+00
     1360 T=  2019. E= -.29599938E+05 F= -.31441430E+05 EK= 0.18415E+04 SP= 0.00E+00 SK= 0.00E+00
     1370 T=  2065. E= -.29599972E+05 F= -.31483230E+05 EK= 0.18833E+04 SP= 0.00E+00 SK= 0.00E+00
     1380 T=  2089. E= -.29600050E+05 F= -.31504978E+05 EK= 0.19049E+04 SP= 0.00E+00 SK= 0.00E+00
     1390 T=  2014. E= -.29599925E+05 F= -.31436667E+05 EK= 0.18367E+04 SP= 0.00E+00 SK= 0.00E+00
     1400 T=  2007. E= -.29600097E+05 F= -.31429953E+05 EK= 0.18299E+04 SP= 0.00E+00 SK= 0.00E+00
     1410 T=  1952. E= -.29599920E+05 F= -.31379567E+05 EK= 0.17796E+04 SP= 0.00E+00 SK= 0.00E+00
     1420 T=  2000. E= -.29600041E+05 F= -.31423919E+05 EK= 0.18239E+04 SP= 0.00E+00 SK= 0.00E+00
     1430 T=  2036. E= -.29600029E+05 F= -.31457165E+05 EK= 0.18571E+04 SP= 0.00E+00 SK= 0.00E+00
     1440 T=  2032. E= -.29600035E+05 F= -.31453013E+05 EK= 0.18530E+04 SP= 0.00E+00 SK= 0.00E+00
     1450 T=  2034. E= -.29599978E+05 F= -.31454455E+05 EK= 0.18545E+04 SP= 0.00E+00 SK= 0.00E+00
     1460 T=  2034. E= -.29599973E+05 F= -.31454505E+05 EK= 0.18545E+04 SP= 0.00E+00 SK= 0.00E+00
     1470 T=  2031. E= -.29599980E+05 F= -.31451962E+05 EK= 0.18520E+04 SP= 0.00E+00 SK= 0.00E+00
Randomizing velocities, T =  4000.
     1480 T=  1993. E= -.29649985E+05 F= -.31467746E+05 EK= 0.18178E+04 SP= 0.00E+00 SK= 0.00E+00
     1490 T=  2051. E= -.29650076E+05 F= -.31520203E+05 EK= 0.18701E+04 SP= 0.00E+00 SK= 0.00E+00
     1500 T=  1987. E= -.29649923E+05 F= -.31461698E+05 EK= 0.18118E+04 SP= 0.00E+00 SK= 0.00E+00
Randomizing velocities, T =  4000.
     1510 T=  2050. E= -.29625763E+05 F= -.31495291E+05 EK= 0.18695E+04 SP= 0.00E+00 SK= 0.00E+00
     1520 T=  2048. E= -.29625650E+05 F= -.31493554E+05 EK= 0.18679E+04 SP= 0.00E+00 SK= 0.00E+00
     1530 T=  2039. E= -.29625654E+05 F= -.31484723E+05 EK= 0.18591E+04 SP= 0.00E+00 SK= 0.00E+00
     1540 T=  1992. E= -.29625649E+05 F= -.31441934E+05 EK= 0.18163E+04 SP= 0.00E+00 SK= 0.00E+00
     1550 T=  1988. E= -.29625590E+05 F= -.31438171E+05 EK= 0.18126E+04 SP= 0.00E+00 SK= 0.00E+00
Randomizing velocities, T =  4000.
     1560 T=  2036. E= -.29644770E+05 F= -.31501803E+05 EK= 0.18570E+04 SP= 0.00E+00 SK= 0.00E+00
     1570 T=  2011. E= -.29644680E+05 F= -.31478793E+05 EK= 0.18341E+04 SP= 0.00E+00 SK= 0.00E+00
     1580 T=  2003. E= -.29644690E+05 F= -.31471407E+05 EK= 0.18267E+04 SP= 0.00E+00 SK= 0.00E+00
     1590 T=  2018. E= -.29644685E+05 F= -.31484916E+05 EK= 0.18402E+04 SP= 0.00E+00 SK= 0.00E+00
     1600 T=  2013. E= -.29644700E+05 F= -.31480075E+05 EK= 0.18354E+04 SP= 0.00E+00 SK= 0.00E+00
     1610 T=  2012. E= -.29644642E+05 F= -.31479889E+05 EK= 0.18352E+04 SP= 0.00E+00 SK= 0.00E+00
     1620 T=  2064. E= -.29644769E+05 F= -.31527067E+05 EK= 0.18823E+04 SP= 0.00E+00 SK= 0.00E+00
     1630 T=  2024. E= -.29644661E+05 F= -.31490662E+05 EK= 0.18460E+04 SP= 0.00E+00 SK= 0.00E+00
     1640 T=  1989. E= -.29644551E+05 F= -.31458319E+05 EK= 0.18138E+04 SP= 0.00E+00 SK= 0.00E+00
     1650 T=  2026. E= -.29644719E+05 F= -.31492645E+05 EK= 0.18479E+04 SP= 0.00E+00 SK= 0.00E+00
     1660 T=  1994. E= -.29644622E+05 F= -.31463390E+05 EK= 0.18188E+04 SP= 0.00E+00 SK= 0.00E+00
     1670 T=  1967. E= -.29644609E+05 F= -.31438510E+05 EK= 0.17939E+04 SP= 0.00E+00 SK= 0.00E+00
     1680 T=  1965. E= -.29644547E+05 F= -.31436787E+05 EK= 0.17922E+04 SP= 0.00E+00 SK= 0.00E+00
     1690 T=  1998. E= -.29644605E+05 F= -.31466391E+05 EK= 0.18218E+04 SP= 0.00E+00 SK= 0.00E+00
     1700 T=  1972. E= -.29644468E+05 F= -.31442381E+05 EK= 0.17979E+04 SP= 0.00E+00 SK= 0.00E+00
     1710 T=  2009. E= -.29644569E+05 F= -.31476193E+05 EK= 0.18316E+04 SP= 0.00E+00 SK= 0.00E+00
     1720 T=  2003. E= -.29644550E+05 F= -.31471281E+05 EK= 0.18267E+04 SP= 0.00E+00 SK= 0.00E+00
     1730 T=  2038. E= -.29644559E+05 F= -.31502797E+05 EK= 0.18582E+04 SP= 0.00E+00 SK= 0.00E+00
     1740 T=  2072. E= -.29644617E+05 F= -.31534066E+05 EK= 0.18894E+04 SP= 0.00E+00 SK= 0.00E+00
     1750 T=  2016. E= -.29644480E+05 F= -.31482495E+05 EK= 0.18380E+04 SP= 0.00E+00 SK= 0.00E+00
     1760 T=  2006. E= -.29644529E+05 F= -.31473667E+05 EK= 0.18291E+04 SP= 0.00E+00 SK= 0.00E+00
     1770 T=  2020. E= -.29644546E+05 F= -.31486552E+05 EK= 0.18420E+04 SP= 0.00E+00 SK= 0.00E+00
     1780 T=  2022. E= -.29644547E+05 F= -.31488565E+05 EK= 0.18440E+04 SP= 0.00E+00 SK= 0.00E+00
     1790 T=  2022. E= -.29644547E+05 F= -.31488690E+05 EK= 0.18441E+04 SP= 0.00E+00 SK= 0.00E+00
     1800 T=  2012. E= -.29644596E+05 F= -.31479087E+05 EK= 0.18345E+04 SP= 0.00E+00 SK= 0.00E+00
     1810 T=  1968. E= -.29644489E+05 F= -.31439346E+05 EK= 0.17949E+04 SP= 0.00E+00 SK= 0.00E+00
     1820 T=  1960. E= -.29644497E+05 F= -.31431864E+05 EK= 0.17874E+04 SP= 0.00E+00 SK= 0.00E+00
     1830 T=  1949. E= -.29644362E+05 F= -.31421689E+05 EK= 0.17773E+04 SP= 0.00E+00 SK= 0.00E+00
     1840 T=  2001. E= -.29644502E+05 F= -.31469121E+05 EK= 0.18246E+04 SP= 0.00E+00 SK= 0.00E+00
     1850 T=  2009. E= -.29644493E+05 F= -.31476961E+05 EK= 0.18325E+04 SP= 0.00E+00 SK= 0.00E+00
     1860 T=  2006. E= -.29644487E+05 F= -.31473426E+05 EK= 0.18289E+04 SP= 0.00E+00 SK= 0.00E+00
     1870 T=  2006. E= -.29644508E+05 F= -.31474118E+05 EK= 0.18296E+04 SP= 0.00E+00 SK= 0.00E+00
     1880 T=  2003. E= -.29644528E+05 F= -.31470994E+05 EK= 0.18265E+04 SP= 0.00E+00 SK= 0.00E+00
     1890 T=  1992. E= -.29644463E+05 F= -.31460930E+05 EK= 0.18165E+04 SP= 0.00E+00 SK= 0.00E+00
     1900 T=  1999. E= -.29644534E+05 F= -.31467210E+05 EK= 0.18227E+04 SP= 0.00E+00 SK= 0.00E+00
     1910 T=  1967. E= -.29644448E+05 F= -.31438622E+05 EK= 0.17942E+04 SP= 0.00E+00 SK= 0.00E+00
     1920 T=  1967. E= -.29644411E+05 F= -.31438137E+05 EK= 0.17937E+04 SP= 0.00E+00 SK= 0.00E+00
     1930 T=  1996. E= -.29644456E+05 F= -.31464721E+05 EK= 0.18203E+04 SP= 0.00E+00 SK= 0.00E+00
     1940 T=  1991. E= -.29644449E+05 F= -.31459762E+05 EK= 0.18153E+04 SP= 0.00E+00 SK= 0.00E+00
     1950 T=  1980. E= -.29644468E+05 F= -.31450540E+05 EK= 0.18061E+04 SP= 0.00E+00 SK= 0.00E+00
     1960 T=  1974. E= -.29644383E+05 F= -.31444570E+05 EK= 0.18002E+04 SP= 0.00E+00 SK= 0.00E+00
     1970 T=  2016. E= -.29644473E+05 F= -.31483246E+05 EK= 0.18388E+04 SP= 0.00E+00 SK= 0.00E+00
     1980 T=  2025. E= -.29644459E+05 F= -.31491087E+05 EK= 0.18466E+04 SP= 0.00E+00 SK= 0.00E+00
     1990 T=  2009. E= -.29644448E+05 F= -.31476518E+05 EK= 0.18321E+04 SP= 0.00E+00 SK= 0.00E+00
At line 1940 of file md.f90
Fortran runtime error: Unit number is negative and unit was not already opened with OPEN(NEWUNIT=...)

Error termination. Backtrace:
At line 1940 of file md.f90
Fortran runtime error: Unit number is negative and unit was not already opened with OPEN(NEWUNIT=...)

Error termination. Backtrace:
At line 1940 of file md.f90
Fortran runtime error: Unit number is negative and unit was not already opened with OPEN(NEWUNIT=...)

Error termination. Backtrace:
At line 1940 of file md.f90
Fortran runtime error: Unit number is negative and unit was not already opened with OPEN(NEWUNIT=...)

Error termination. Backtrace:
At line 1940 of file md.f90
Fortran runtime error: Unit number is negative and unit was not already opened with OPEN(NEWUNIT=...)

Error termination. Backtrace:
     2000 T=  2000. E= -.29644391E+05 F= -.31468542E+05 EK= 0.18242E+04 SP= 0.00E+00 SK= 0.00E+00
Rc and Rl:   5.500000  7.321000

Average number of steps between two list updates:  20.00
Average number of atoms in the shell:     0.01
#0  0x7f88f5133d11 in ???
#1  0x7f88f5134859 in ???
#2  0x7f88f513553f in ???
#3  0x55c983f500bc in ???
#4  0x55c983f4b92e in ???
#5  0x7f88f4dca082 in __libc_start_main
	at ../csu/libc-start.c:308
#6  0x55c983f4b96d in ???
#7  0xffffffffffffffff in ???
#0  0x7f4520f99d11 in ???
#1  0x7f4520f9a859 in ???
#2  0x7f4520f9b53f in ???
#3  0x558831f320bc in ???
#4  0x558831f2d92e in ???
#5  0x7f4520c30082 in __libc_start_main
	at ../csu/libc-start.c:308
#6  0x558831f2d96d in ???
#7  0xffffffffffffffff in ???
#0  0x7f9a4929cd11 in ???
#1  0x7f9a4929d859 in ???
#2  0x7f9a4929e53f in ???
#3  0x55d2a5a870bc in ???
#4  0x55d2a5a8292e in ???
#5  0x7f9a48f33082 in __libc_start_main
	at ../csu/libc-start.c:308
#6  0x55d2a5a8296d in ???
#7  0xffffffffffffffff in ???
#0  0x7f9c3f96cd11 in ???
#1  0x7f9c3f96d859 in ???
#2  0x7f9c3f96e53f in ???
#3  0x5566e09520bc in ???
#4  0x5566e094d92e in ???
#5  0x7f9c3f603082 in __libc_start_main
	at ../csu/libc-start.c:308
#6  0x5566e094d96d in ???
#7  0xffffffffffffffff in ???
#0  0x7f7f88d60d11 in ???
#1  0x7f7f88d61859 in ???
#2  0x7f7f88d6253f in ???
#3  0x55cd1ba280bc in ???
#4  0x55cd1ba2392e in ???
#5  0x7f7f889f7082 in __libc_start_main
	at ../csu/libc-start.c:308
#6  0x55cd1ba2396d in ???
#7  0xffffffffffffffff in ???
