 running on    6 nodes
 distr:  one band on    1 nodes,    6 groups
 md.x 0.99
 POSCAR found :  1 types and     7056 ions
Rc and Rl:   5.500000  7.321000
 TIPO = eam     
 TIPO1 = uknown p
 Using EAM

 EAM parameters: 
 C  =   9.9634  EPS  = 0.2048  A  = 3.5678  M  = 3.127  N  =  6.366  R1 =   5.500000


 ----------------------------------------------------------------------------- 
|                                                                             |
|           W    W    AA    RRRRR   N    N  II  N    N   GGGG   !!!           |
|           W    W   A  A   R    R  NN   N  II  NN   N  G    G  !!!           |
|           W    W  A    A  R    R  N N  N  II  N N  N  G       !!!           |
|           W WW W  AAAAAA  RRRRR   N  N N  II  N  N N  G  GGG   !            |
|           WW  WW  A    A  R   R   N   NN  II  N   NN  G    G                |
|           W    W  A    A  R    R  N    N  II  N    N   GGGG   !!!           |
|                                                                             |
|      VASP found  21165 degrees of freedom                                   |
|      the temperature will equal 2*E(kin)/ (degrees of freedom)              |
|      this differs from previous releases, where T was 2*E(kin)/(3 NIONS).   |
|      The new definition is more consistent                                  |
|                                                                             |
 ----------------------------------------------------------------------------- 

 Random init:        7181       14752
 Random init:        7181       14752
 Random init:        7181       14752
 Random init:        7181       14752
 Random init:        7181       14752
 Random init:        7181       14752
 alloco spazio per displ
       10 T=  2902. E= -.30089639E+05 F= -.32736016E+05 EK= 0.26464E+04 SP= 0.00E+00 SK= 0.00E+00
       20 T=  2839. E= -.30089480E+05 F= -.32678695E+05 EK= 0.25892E+04 SP= 0.00E+00 SK= 0.00E+00
       30 T=  2851. E= -.30089535E+05 F= -.32689064E+05 EK= 0.25995E+04 SP= 0.00E+00 SK= 0.00E+00
       40 T=  2864. E= -.30089595E+05 F= -.32701445E+05 EK= 0.26119E+04 SP= 0.00E+00 SK= 0.00E+00
       50 T=  2803. E= -.30089528E+05 F= -.32645661E+05 EK= 0.25561E+04 SP= 0.00E+00 SK= 0.00E+00
       60 T=  2821. E= -.30089610E+05 F= -.32662282E+05 EK= 0.25727E+04 SP= 0.00E+00 SK= 0.00E+00
       70 T=  2838. E= -.30089594E+05 F= -.32677856E+05 EK= 0.25883E+04 SP= 0.00E+00 SK= 0.00E+00
       80 T=  2844. E= -.30089622E+05 F= -.32683513E+05 EK= 0.25939E+04 SP= 0.00E+00 SK= 0.00E+00
       90 T=  2834. E= -.30089616E+05 F= -.32673727E+05 EK= 0.25841E+04 SP= 0.00E+00 SK= 0.00E+00
      100 T=  2810. E= -.30089484E+05 F= -.32651972E+05 EK= 0.25625E+04 SP= 0.00E+00 SK= 0.00E+00
      110 T=  2841. E= -.30089535E+05 F= -.32680691E+05 EK= 0.25912E+04 SP= 0.00E+00 SK= 0.00E+00
      120 T=  2834. E= -.30089487E+05 F= -.32674252E+05 EK= 0.25848E+04 SP= 0.00E+00 SK= 0.00E+00
      130 T=  2825. E= -.30089488E+05 F= -.32665780E+05 EK= 0.25763E+04 SP= 0.00E+00 SK= 0.00E+00
      140 T=  2829. E= -.30089474E+05 F= -.32669787E+05 EK= 0.25803E+04 SP= 0.00E+00 SK= 0.00E+00
      150 T=  2837. E= -.30089495E+05 F= -.32676272E+05 EK= 0.25868E+04 SP= 0.00E+00 SK= 0.00E+00
      160 T=  2810. E= -.30089391E+05 F= -.32652190E+05 EK= 0.25628E+04 SP= 0.00E+00 SK= 0.00E+00
      170 T=  2832. E= -.30089473E+05 F= -.32672473E+05 EK= 0.25830E+04 SP= 0.00E+00 SK= 0.00E+00
      180 T=  2850. E= -.30089466E+05 F= -.32688316E+05 EK= 0.25988E+04 SP= 0.00E+00 SK= 0.00E+00
      190 T=  2839. E= -.30089462E+05 F= -.32678563E+05 EK= 0.25891E+04 SP= 0.00E+00 SK= 0.00E+00
      200 T=  2821. E= -.30089465E+05 F= -.32661933E+05 EK= 0.25725E+04 SP= 0.00E+00 SK= 0.00E+00
      210 T=  2835. E= -.30089473E+05 F= -.32674872E+05 EK= 0.25854E+04 SP= 0.00E+00 SK= 0.00E+00
      220 T=  2859. E= -.30089546E+05 F= -.32696337E+05 EK= 0.26068E+04 SP= 0.00E+00 SK= 0.00E+00
      230 T=  2837. E= -.30089432E+05 F= -.32676734E+05 EK= 0.25873E+04 SP= 0.00E+00 SK= 0.00E+00
      240 T=  2851. E= -.30089563E+05 F= -.32689337E+05 EK= 0.25998E+04 SP= 0.00E+00 SK= 0.00E+00
      250 T=  2833. E= -.30089473E+05 F= -.32673201E+05 EK= 0.25837E+04 SP= 0.00E+00 SK= 0.00E+00
      260 T=  2843. E= -.30089546E+05 F= -.32682268E+05 EK= 0.25927E+04 SP= 0.00E+00 SK= 0.00E+00
      270 T=  2833. E= -.30089503E+05 F= -.32672855E+05 EK= 0.25834E+04 SP= 0.00E+00 SK= 0.00E+00
      280 T=  2816. E= -.30089522E+05 F= -.32657730E+05 EK= 0.25682E+04 SP= 0.00E+00 SK= 0.00E+00
      290 T=  2788. E= -.30089465E+05 F= -.32631815E+05 EK= 0.25424E+04 SP= 0.00E+00 SK= 0.00E+00
      300 T=  2800. E= -.30089487E+05 F= -.32642848E+05 EK= 0.25534E+04 SP= 0.00E+00 SK= 0.00E+00
      310 T=  2853. E= -.30089544E+05 F= -.32691311E+05 EK= 0.26018E+04 SP= 0.00E+00 SK= 0.00E+00
      320 T=  2847. E= -.30089511E+05 F= -.32685385E+05 EK= 0.25959E+04 SP= 0.00E+00 SK= 0.00E+00
      330 T=  2816. E= -.30089490E+05 F= -.32657300E+05 EK= 0.25678E+04 SP= 0.00E+00 SK= 0.00E+00
      340 T=  2825. E= -.30089475E+05 F= -.32666139E+05 EK= 0.25767E+04 SP= 0.00E+00 SK= 0.00E+00
      350 T=  2829. E= -.30089482E+05 F= -.32669442E+05 EK= 0.25800E+04 SP= 0.00E+00 SK= 0.00E+00
      360 T=  2827. E= -.30089452E+05 F= -.32667883E+05 EK= 0.25784E+04 SP= 0.00E+00 SK= 0.00E+00
      370 T=  2825. E= -.30089452E+05 F= -.32665567E+05 EK= 0.25761E+04 SP= 0.00E+00 SK= 0.00E+00
      380 T=  2826. E= -.30089375E+05 F= -.32666197E+05 EK= 0.25768E+04 SP= 0.00E+00 SK= 0.00E+00
      390 T=  2874. E= -.30089441E+05 F= -.32710654E+05 EK= 0.26212E+04 SP= 0.00E+00 SK= 0.00E+00
      400 T=  2853. E= -.30089411E+05 F= -.32691376E+05 EK= 0.26020E+04 SP= 0.00E+00 SK= 0.00E+00
      410 T=  2827. E= -.30089442E+05 F= -.32667936E+05 EK= 0.25785E+04 SP= 0.00E+00 SK= 0.00E+00
      420 T=  2840. E= -.30089489E+05 F= -.32679394E+05 EK= 0.25899E+04 SP= 0.00E+00 SK= 0.00E+00
      430 T=  2839. E= -.30089543E+05 F= -.32678117E+05 EK= 0.25886E+04 SP= 0.00E+00 SK= 0.00E+00
      440 T=  2801. E= -.30089442E+05 F= -.32643816E+05 EK= 0.25544E+04 SP= 0.00E+00 SK= 0.00E+00
      450 T=  2828. E= -.30089530E+05 F= -.32668460E+05 EK= 0.25789E+04 SP= 0.00E+00 SK= 0.00E+00
      460 T=  2838. E= -.30089493E+05 F= -.32677217E+05 EK= 0.25877E+04 SP= 0.00E+00 SK= 0.00E+00
      470 T=  2825. E= -.30089523E+05 F= -.32665308E+05 EK= 0.25758E+04 SP= 0.00E+00 SK= 0.00E+00
      480 T=  2806. E= -.30089459E+05 F= -.32648229E+05 EK= 0.25588E+04 SP= 0.00E+00 SK= 0.00E+00
      490 T=  2824. E= -.30089499E+05 F= -.32664629E+05 EK= 0.25751E+04 SP= 0.00E+00 SK= 0.00E+00
      500 T=  2834. E= -.30089502E+05 F= -.32673605E+05 EK= 0.25841E+04 SP= 0.00E+00 SK= 0.00E+00
      510 T=  2851. E= -.30089512E+05 F= -.32689242E+05 EK= 0.25997E+04 SP= 0.00E+00 SK= 0.00E+00
      520 T=  2866. E= -.30089605E+05 F= -.32702974E+05 EK= 0.26134E+04 SP= 0.00E+00 SK= 0.00E+00
      530 T=  2826. E= -.30089538E+05 F= -.32666429E+05 EK= 0.25769E+04 SP= 0.00E+00 SK= 0.00E+00
      540 T=  2831. E= -.30089595E+05 F= -.32671450E+05 EK= 0.25819E+04 SP= 0.00E+00 SK= 0.00E+00
      550 T=  2832. E= -.30089557E+05 F= -.32672031E+05 EK= 0.25825E+04 SP= 0.00E+00 SK= 0.00E+00
      560 T=  2853. E= -.30089587E+05 F= -.32691777E+05 EK= 0.26022E+04 SP= 0.00E+00 SK= 0.00E+00
      570 T=  2844. E= -.30089561E+05 F= -.32683173E+05 EK= 0.25936E+04 SP= 0.00E+00 SK= 0.00E+00
      580 T=  2840. E= -.30089613E+05 F= -.32679309E+05 EK= 0.25897E+04 SP= 0.00E+00 SK= 0.00E+00
      590 T=  2807. E= -.30089577E+05 F= -.32649147E+05 EK= 0.25596E+04 SP= 0.00E+00 SK= 0.00E+00
      600 T=  2784. E= -.30089557E+05 F= -.32628560E+05 EK= 0.25390E+04 SP= 0.00E+00 SK= 0.00E+00
      610 T=  2832. E= -.30089627E+05 F= -.32672259E+05 EK= 0.25826E+04 SP= 0.00E+00 SK= 0.00E+00
      620 T=  2866. E= -.30089643E+05 F= -.32703276E+05 EK= 0.26136E+04 SP= 0.00E+00 SK= 0.00E+00
      630 T=  2844. E= -.30089508E+05 F= -.32682663E+05 EK= 0.25932E+04 SP= 0.00E+00 SK= 0.00E+00
      640 T=  2847. E= -.30089597E+05 F= -.32685909E+05 EK= 0.25963E+04 SP= 0.00E+00 SK= 0.00E+00
      650 T=  2815. E= -.30089454E+05 F= -.32656480E+05 EK= 0.25670E+04 SP= 0.00E+00 SK= 0.00E+00
      660 T=  2845. E= -.30089500E+05 F= -.32683764E+05 EK= 0.25943E+04 SP= 0.00E+00 SK= 0.00E+00
      670 T=  2865. E= -.30089535E+05 F= -.32702250E+05 EK= 0.26127E+04 SP= 0.00E+00 SK= 0.00E+00
      680 T=  2834. E= -.30089541E+05 F= -.32673892E+05 EK= 0.25844E+04 SP= 0.00E+00 SK= 0.00E+00
      690 T=  2794. E= -.30089490E+05 F= -.32637554E+05 EK= 0.25481E+04 SP= 0.00E+00 SK= 0.00E+00
      700 T=  2830. E= -.30089536E+05 F= -.32670131E+05 EK= 0.25806E+04 SP= 0.00E+00 SK= 0.00E+00
      710 T=  2856. E= -.30089541E+05 F= -.32693684E+05 EK= 0.26041E+04 SP= 0.00E+00 SK= 0.00E+00
      720 T=  2844. E= -.30089551E+05 F= -.32682640E+05 EK= 0.25931E+04 SP= 0.00E+00 SK= 0.00E+00
      730 T=  2813. E= -.30089540E+05 F= -.32654359E+05 EK= 0.25648E+04 SP= 0.00E+00 SK= 0.00E+00
      740 T=  2843. E= -.30089580E+05 F= -.32681905E+05 EK= 0.25923E+04 SP= 0.00E+00 SK= 0.00E+00
      750 T=  2858. E= -.30089647E+05 F= -.32695605E+05 EK= 0.26060E+04 SP= 0.00E+00 SK= 0.00E+00
      760 T=  2811. E= -.30089540E+05 F= -.32653380E+05 EK= 0.25638E+04 SP= 0.00E+00 SK= 0.00E+00
      770 T=  2837. E= -.30089611E+05 F= -.32676722E+05 EK= 0.25871E+04 SP= 0.00E+00 SK= 0.00E+00
      780 T=  2831. E= -.30089583E+05 F= -.32671509E+05 EK= 0.25819E+04 SP= 0.00E+00 SK= 0.00E+00
      790 T=  2831. E= -.30089567E+05 F= -.32671073E+05 EK= 0.25815E+04 SP= 0.00E+00 SK= 0.00E+00
      800 T=  2852. E= -.30089528E+05 F= -.32690789E+05 EK= 0.26013E+04 SP= 0.00E+00 SK= 0.00E+00
      810 T=  2865. E= -.30089550E+05 F= -.32701819E+05 EK= 0.26123E+04 SP= 0.00E+00 SK= 0.00E+00
      820 T=  2833. E= -.30089489E+05 F= -.32673186E+05 EK= 0.25837E+04 SP= 0.00E+00 SK= 0.00E+00
      830 T=  2819. E= -.30089450E+05 F= -.32660105E+05 EK= 0.25707E+04 SP= 0.00E+00 SK= 0.00E+00
      840 T=  2849. E= -.30089531E+05 F= -.32687680E+05 EK= 0.25981E+04 SP= 0.00E+00 SK= 0.00E+00
      850 T=  2868. E= -.30089562E+05 F= -.32705399E+05 EK= 0.26158E+04 SP= 0.00E+00 SK= 0.00E+00
      860 T=  2833. E= -.30089466E+05 F= -.32673399E+05 EK= 0.25839E+04 SP= 0.00E+00 SK= 0.00E+00
      870 T=  2811. E= -.30089438E+05 F= -.32652998E+05 EK= 0.25636E+04 SP= 0.00E+00 SK= 0.00E+00
      880 T=  2827. E= -.30089438E+05 F= -.32667492E+05 EK= 0.25781E+04 SP= 0.00E+00 SK= 0.00E+00
      890 T=  2850. E= -.30089505E+05 F= -.32688910E+05 EK= 0.25994E+04 SP= 0.00E+00 SK= 0.00E+00
      900 T=  2845. E= -.30089503E+05 F= -.32683588E+05 EK= 0.25941E+04 SP= 0.00E+00 SK= 0.00E+00
      910 T=  2846. E= -.30089505E+05 F= -.32684878E+05 EK= 0.25954E+04 SP= 0.00E+00 SK= 0.00E+00
      920 T=  2844. E= -.30089540E+05 F= -.32682798E+05 EK= 0.25933E+04 SP= 0.00E+00 SK= 0.00E+00
      930 T=  2820. E= -.30089486E+05 F= -.32661563E+05 EK= 0.25721E+04 SP= 0.00E+00 SK= 0.00E+00
      940 T=  2834. E= -.30089485E+05 F= -.32673459E+05 EK= 0.25840E+04 SP= 0.00E+00 SK= 0.00E+00
      950 T=  2828. E= -.30089434E+05 F= -.32668488E+05 EK= 0.25791E+04 SP= 0.00E+00 SK= 0.00E+00
      960 T=  2808. E= -.30089410E+05 F= -.32650008E+05 EK= 0.25606E+04 SP= 0.00E+00 SK= 0.00E+00
      970 T=  2808. E= -.30089443E+05 F= -.32649956E+05 EK= 0.25605E+04 SP= 0.00E+00 SK= 0.00E+00
      980 T=  2833. E= -.30089449E+05 F= -.32672774E+05 EK= 0.25833E+04 SP= 0.00E+00 SK= 0.00E+00
      990 T=  2842. E= -.30089449E+05 F= -.32681546E+05 EK= 0.25921E+04 SP= 0.00E+00 SK= 0.00E+00
     1000 T=  2841. E= -.30089370E+05 F= -.32679795E+05 EK= 0.25904E+04 SP= 0.00E+00 SK= 0.00E+00
     1010 T=  2876. E= -.30089476E+05 F= -.32712284E+05 EK= 0.26228E+04 SP= 0.00E+00 SK= 0.00E+00
     1020 T=  2866. E= -.30089425E+05 F= -.32703151E+05 EK= 0.26137E+04 SP= 0.00E+00 SK= 0.00E+00
     1030 T=  2851. E= -.30089500E+05 F= -.32689298E+05 EK= 0.25998E+04 SP= 0.00E+00 SK= 0.00E+00
     1040 T=  2814. E= -.30089424E+05 F= -.32655282E+05 EK= 0.25659E+04 SP= 0.00E+00 SK= 0.00E+00
     1050 T=  2821. E= -.30089440E+05 F= -.32661591E+05 EK= 0.25722E+04 SP= 0.00E+00 SK= 0.00E+00
     1060 T=  2830. E= -.30089436E+05 F= -.32670047E+05 EK= 0.25806E+04 SP= 0.00E+00 SK= 0.00E+00
     1070 T=  2828. E= -.30089430E+05 F= -.32668515E+05 EK= 0.25791E+04 SP= 0.00E+00 SK= 0.00E+00
     1080 T=  2832. E= -.30089416E+05 F= -.32672003E+05 EK= 0.25826E+04 SP= 0.00E+00 SK= 0.00E+00
     1090 T=  2852. E= -.30089429E+05 F= -.32689836E+05 EK= 0.26004E+04 SP= 0.00E+00 SK= 0.00E+00
     1100 T=  2844. E= -.30089366E+05 F= -.32683018E+05 EK= 0.25937E+04 SP= 0.00E+00 SK= 0.00E+00
     1110 T=  2820. E= -.30089321E+05 F= -.32660872E+05 EK= 0.25716E+04 SP= 0.00E+00 SK= 0.00E+00
     1120 T=  2820. E= -.30089329E+05 F= -.32660633E+05 EK= 0.25713E+04 SP= 0.00E+00 SK= 0.00E+00
     1130 T=  2860. E= -.30089388E+05 F= -.32697521E+05 EK= 0.26081E+04 SP= 0.00E+00 SK= 0.00E+00
     1140 T=  2842. E= -.30089338E+05 F= -.32680786E+05 EK= 0.25914E+04 SP= 0.00E+00 SK= 0.00E+00
     1150 T=  2837. E= -.30089331E+05 F= -.32676211E+05 EK= 0.25869E+04 SP= 0.00E+00 SK= 0.00E+00
     1160 T=  2853. E= -.30089383E+05 F= -.32691544E+05 EK= 0.26022E+04 SP= 0.00E+00 SK= 0.00E+00
     1170 T=  2827. E= -.30089324E+05 F= -.32667498E+05 EK= 0.25782E+04 SP= 0.00E+00 SK= 0.00E+00
     1180 T=  2824. E= -.30089370E+05 F= -.32664390E+05 EK= 0.25750E+04 SP= 0.00E+00 SK= 0.00E+00
     1190 T=  2832. E= -.30089351E+05 F= -.32672081E+05 EK= 0.25827E+04 SP= 0.00E+00 SK= 0.00E+00
     1200 T=  2841. E= -.30089348E+05 F= -.32679923E+05 EK= 0.25906E+04 SP= 0.00E+00 SK= 0.00E+00
     1210 T=  2844. E= -.30089325E+05 F= -.32683157E+05 EK= 0.25938E+04 SP= 0.00E+00 SK= 0.00E+00
     1220 T=  2831. E= -.30089320E+05 F= -.32670823E+05 EK= 0.25815E+04 SP= 0.00E+00 SK= 0.00E+00
     1230 T=  2834. E= -.30089335E+05 F= -.32674153E+05 EK= 0.25848E+04 SP= 0.00E+00 SK= 0.00E+00
     1240 T=  2854. E= -.30089353E+05 F= -.32692057E+05 EK= 0.26027E+04 SP= 0.00E+00 SK= 0.00E+00
     1250 T=  2856. E= -.30089344E+05 F= -.32694131E+05 EK= 0.26048E+04 SP= 0.00E+00 SK= 0.00E+00
     1260 T=  2874. E= -.30089406E+05 F= -.32710285E+05 EK= 0.26209E+04 SP= 0.00E+00 SK= 0.00E+00
     1270 T=  2834. E= -.30089241E+05 F= -.32673593E+05 EK= 0.25844E+04 SP= 0.00E+00 SK= 0.00E+00
     1280 T=  2843. E= -.30089405E+05 F= -.32682154E+05 EK= 0.25927E+04 SP= 0.00E+00 SK= 0.00E+00
     1290 T=  2809. E= -.30089268E+05 F= -.32650870E+05 EK= 0.25616E+04 SP= 0.00E+00 SK= 0.00E+00
     1300 T=  2816. E= -.30089254E+05 F= -.32657321E+05 EK= 0.25681E+04 SP= 0.00E+00 SK= 0.00E+00
     1310 T=  2865. E= -.30089367E+05 F= -.32702471E+05 EK= 0.26131E+04 SP= 0.00E+00 SK= 0.00E+00
     1320 T=  2837. E= -.30089248E+05 F= -.32676161E+05 EK= 0.25869E+04 SP= 0.00E+00 SK= 0.00E+00
     1330 T=  2839. E= -.30089316E+05 F= -.32678506E+05 EK= 0.25892E+04 SP= 0.00E+00 SK= 0.00E+00
     1340 T=  2833. E= -.30089222E+05 F= -.32673092E+05 EK= 0.25839E+04 SP= 0.00E+00 SK= 0.00E+00
     1350 T=  2850. E= -.30089273E+05 F= -.32687904E+05 EK= 0.25986E+04 SP= 0.00E+00 SK= 0.00E+00
     1360 T=  2812. E= -.30089189E+05 F= -.32653556E+05 EK= 0.25644E+04 SP= 0.00E+00 SK= 0.00E+00
     1370 T=  2815. E= -.30089219E+05 F= -.32656577E+05 EK= 0.25674E+04 SP= 0.00E+00 SK= 0.00E+00
     1380 T=  2829. E= -.30089276E+05 F= -.32669158E+05 EK= 0.25799E+04 SP= 0.00E+00 SK= 0.00E+00
     1390 T=  2832. E= -.30089233E+05 F= -.32671897E+05 EK= 0.25827E+04 SP= 0.00E+00 SK= 0.00E+00
     1400 T=  2864. E= -.30089308E+05 F= -.32701266E+05 EK= 0.26120E+04 SP= 0.00E+00 SK= 0.00E+00
     1410 T=  2830. E= -.30089233E+05 F= -.32669838E+05 EK= 0.25806E+04 SP= 0.00E+00 SK= 0.00E+00
     1420 T=  2799. E= -.30089105E+05 F= -.32641163E+05 EK= 0.25521E+04 SP= 0.00E+00 SK= 0.00E+00
     1430 T=  2839. E= -.30089149E+05 F= -.32678480E+05 EK= 0.25893E+04 SP= 0.00E+00 SK= 0.00E+00
     1440 T=  2846. E= -.30089152E+05 F= -.32684852E+05 EK= 0.25957E+04 SP= 0.00E+00 SK= 0.00E+00
     1450 T=  2835. E= -.30089059E+05 F= -.32673943E+05 EK= 0.25849E+04 SP= 0.00E+00 SK= 0.00E+00
     1460 T=  2866. E= -.30089088E+05 F= -.32702508E+05 EK= 0.26134E+04 SP= 0.00E+00 SK= 0.00E+00
     1470 T=  2847. E= -.30089057E+05 F= -.32685462E+05 EK= 0.25964E+04 SP= 0.00E+00 SK= 0.00E+00
     1480 T=  2796. E= -.30088968E+05 F= -.32638625E+05 EK= 0.25497E+04 SP= 0.00E+00 SK= 0.00E+00
     1490 T=  2816. E= -.30088953E+05 F= -.32656915E+05 EK= 0.25680E+04 SP= 0.00E+00 SK= 0.00E+00
     1500 T=  2858. E= -.30089036E+05 F= -.32695416E+05 EK= 0.26064E+04 SP= 0.00E+00 SK= 0.00E+00
     1510 T=  2823. E= -.30088895E+05 F= -.32662968E+05 EK= 0.25741E+04 SP= 0.00E+00 SK= 0.00E+00
     1520 T=  2838. E= -.30089020E+05 F= -.32677406E+05 EK= 0.25884E+04 SP= 0.00E+00 SK= 0.00E+00
     1530 T=  2842. E= -.30088994E+05 F= -.32680893E+05 EK= 0.25919E+04 SP= 0.00E+00 SK= 0.00E+00
     1540 T=  2854. E= -.30089038E+05 F= -.32691839E+05 EK= 0.26028E+04 SP= 0.00E+00 SK= 0.00E+00
     1550 T=  2850. E= -.30089049E+05 F= -.32687670E+05 EK= 0.25986E+04 SP= 0.00E+00 SK= 0.00E+00
     1560 T=  2839. E= -.30089008E+05 F= -.32678366E+05 EK= 0.25894E+04 SP= 0.00E+00 SK= 0.00E+00
     1570 T=  2865. E= -.30089126E+05 F= -.32701982E+05 EK= 0.26129E+04 SP= 0.00E+00 SK= 0.00E+00
     1580 T=  2817. E= -.30089047E+05 F= -.32658222E+05 EK= 0.25692E+04 SP= 0.00E+00 SK= 0.00E+00
     1590 T=  2804. E= -.30089054E+05 F= -.32646278E+05 EK= 0.25572E+04 SP= 0.00E+00 SK= 0.00E+00
     1600 T=  2834. E= -.30089170E+05 F= -.32673260E+05 EK= 0.25841E+04 SP= 0.00E+00 SK= 0.00E+00
     1610 T=  2784. E= -.30089051E+05 F= -.32628042E+05 EK= 0.25390E+04 SP= 0.00E+00 SK= 0.00E+00
     1620 T=  2815. E= -.30089078E+05 F= -.32656201E+05 EK= 0.25671E+04 SP= 0.00E+00 SK= 0.00E+00
     1630 T=  2873. E= -.30089165E+05 F= -.32708792E+05 EK= 0.26196E+04 SP= 0.00E+00 SK= 0.00E+00
     1640 T=  2834. E= -.30089034E+05 F= -.32673469E+05 EK= 0.25844E+04 SP= 0.00E+00 SK= 0.00E+00
     1650 T=  2860. E= -.30089123E+05 F= -.32697415E+05 EK= 0.26083E+04 SP= 0.00E+00 SK= 0.00E+00
     1660 T=  2856. E= -.30089128E+05 F= -.32693562E+05 EK= 0.26044E+04 SP= 0.00E+00 SK= 0.00E+00
     1670 T=  2808. E= -.30088984E+05 F= -.32649449E+05 EK= 0.25605E+04 SP= 0.00E+00 SK= 0.00E+00
     1680 T=  2819. E= -.30089068E+05 F= -.32659518E+05 EK= 0.25705E+04 SP= 0.00E+00 SK= 0.00E+00
     1690 T=  2819. E= -.30089008E+05 F= -.32660059E+05 EK= 0.25711E+04 SP= 0.00E+00 SK= 0.00E+00
     1700 T=  2831. E= -.30088999E+05 F= -.32671049E+05 EK= 0.25820E+04 SP= 0.00E+00 SK= 0.00E+00
     1710 T=  2837. E= -.30089066E+05 F= -.32676406E+05 EK= 0.25873E+04 SP= 0.00E+00 SK= 0.00E+00
     1720 T=  2837. E= -.30089043E+05 F= -.32676300E+05 EK= 0.25873E+04 SP= 0.00E+00 SK= 0.00E+00
     1730 T=  2849. E= -.30089104E+05 F= -.32687434E+05 EK= 0.25983E+04 SP= 0.00E+00 SK= 0.00E+00
     1740 T=  2808. E= -.30089005E+05 F= -.32649586E+05 EK= 0.25606E+04 SP= 0.00E+00 SK= 0.00E+00
     1750 T=  2853. E= -.30089110E+05 F= -.32690947E+05 EK= 0.26018E+04 SP= 0.00E+00 SK= 0.00E+00
     1760 T=  2852. E= -.30089019E+05 F= -.32689534E+05 EK= 0.26005E+04 SP= 0.00E+00 SK= 0.00E+00
     1770 T=  2846. E= -.30089036E+05 F= -.32684524E+05 EK= 0.25955E+04 SP= 0.00E+00 SK= 0.00E+00
     1780 T=  2838. E= -.30088974E+05 F= -.32676897E+05 EK= 0.25879E+04 SP= 0.00E+00 SK= 0.00E+00
     1790 T=  2834. E= -.30089042E+05 F= -.32673733E+05 EK= 0.25847E+04 SP= 0.00E+00 SK= 0.00E+00
     1800 T=  2840. E= -.30089055E+05 F= -.32679128E+05 EK= 0.25901E+04 SP= 0.00E+00 SK= 0.00E+00
     1810 T=  2850. E= -.30089079E+05 F= -.32687935E+05 EK= 0.25989E+04 SP= 0.00E+00 SK= 0.00E+00
     1820 T=  2818. E= -.30089075E+05 F= -.32658671E+05 EK= 0.25696E+04 SP= 0.00E+00 SK= 0.00E+00
     1830 T=  2791. E= -.30089046E+05 F= -.32634195E+05 EK= 0.25451E+04 SP= 0.00E+00 SK= 0.00E+00
     1840 T=  2824. E= -.30089081E+05 F= -.32664409E+05 EK= 0.25753E+04 SP= 0.00E+00 SK= 0.00E+00
     1850 T=  2852. E= -.30089120E+05 F= -.32689810E+05 EK= 0.26007E+04 SP= 0.00E+00 SK= 0.00E+00
     1860 T=  2826. E= -.30089028E+05 F= -.32666155E+05 EK= 0.25771E+04 SP= 0.00E+00 SK= 0.00E+00
     1870 T=  2845. E= -.30089109E+05 F= -.32683393E+05 EK= 0.25943E+04 SP= 0.00E+00 SK= 0.00E+00
     1880 T=  2850. E= -.30089031E+05 F= -.32688431E+05 EK= 0.25994E+04 SP= 0.00E+00 SK= 0.00E+00
     1890 T=  2851. E= -.30089069E+05 F= -.32688656E+05 EK= 0.25996E+04 SP= 0.00E+00 SK= 0.00E+00
     1900 T=  2842. E= -.30089107E+05 F= -.32681244E+05 EK= 0.25921E+04 SP= 0.00E+00 SK= 0.00E+00
     1910 T=  2793. E= -.30088994E+05 F= -.32636155E+05 EK= 0.25472E+04 SP= 0.00E+00 SK= 0.00E+00
     1920 T=  2820. E= -.30089125E+05 F= -.32660606E+05 EK= 0.25715E+04 SP= 0.00E+00 SK= 0.00E+00
     1930 T=  2845. E= -.30089146E+05 F= -.32683830E+05 EK= 0.25947E+04 SP= 0.00E+00 SK= 0.00E+00
     1940 T=  2835. E= -.30089025E+05 F= -.32674161E+05 EK= 0.25851E+04 SP= 0.00E+00 SK= 0.00E+00
     1950 T=  2876. E= -.30089139E+05 F= -.32711751E+05 EK= 0.26226E+04 SP= 0.00E+00 SK= 0.00E+00
     1960 T=  2874. E= -.30089183E+05 F= -.32709967E+05 EK= 0.26208E+04 SP= 0.00E+00 SK= 0.00E+00
     1970 T=  2819. E= -.30089120E+05 F= -.32660044E+05 EK= 0.25709E+04 SP= 0.00E+00 SK= 0.00E+00
     1980 T=  2800. E= -.30089130E+05 F= -.32642860E+05 EK= 0.25537E+04 SP= 0.00E+00 SK= 0.00E+00
     1990 T=  2824. E= -.30089163E+05 F= -.32664761E+05 EK= 0.25756E+04 SP= 0.00E+00 SK= 0.00E+00
At line 1940 of file md.f90
Fortran runtime error: Unit number is negative and unit was not already opened with OPEN(NEWUNIT=...)

Error termination. Backtrace:
At line 1940 of file md.f90
Fortran runtime error: Unit number is negative and unit was not already opened with OPEN(NEWUNIT=...)

Error termination. Backtrace:
At line 1940 of file md.f90
Fortran runtime error: Unit number is negative and unit was not already opened with OPEN(NEWUNIT=...)

Error termination. Backtrace:
At line 1940 of file md.f90
Fortran runtime error: Unit number is negative and unit was not already opened with OPEN(NEWUNIT=...)

Error termination. Backtrace:
At line 1940 of file md.f90
Fortran runtime error: Unit number is negative and unit was not already opened with OPEN(NEWUNIT=...)

Error termination. Backtrace:
     2000 T=  2851. E= -.30089162E+05 F= -.32689477E+05 EK= 0.26003E+04 SP= 0.00E+00 SK= 0.00E+00
Rc and Rl:   5.500000  7.321000

Average number of steps between two list updates:  22.99
Average number of atoms in the shell:     0.01
#0  0x7fefef3a5d11 in ???
#1  0x7fefef3a6859 in ???
#2  0x7fefef3a753f in ???
#3  0x56491ebf40bc in ???
#4  0x56491ebef92e in ???
#5  0x7fefef03c082 in __libc_start_main
	at ../csu/libc-start.c:308
#6  0x56491ebef96d in ???
#7  0xffffffffffffffff in ???
#0  0x7fdf7e2c1d11 in ???
#1  0x7fdf7e2c2859 in ???
#2  0x7fdf7e2c353f in ???
#3  0x556fdfd8c0bc in ???
#4  0x556fdfd8792e in ???
#5  0x7fdf7df58082 in __libc_start_main
	at ../csu/libc-start.c:308
#6  0x556fdfd8796d in ???
#7  0xffffffffffffffff in ???
#0  0x7f00d6459d11 in ???
#1  0x7f00d645a859 in ???
#2  0x7f00d645b53f in ???
#3  0x56098d6f30bc in ???
#4  0x56098d6ee92e in ???
#5  0x7f00d60f0082 in __libc_start_main
	at ../csu/libc-start.c:308
#6  0x56098d6ee96d in ???
#7  0xffffffffffffffff in ???
#0  0x7fd24ebb2d11 in ???
#1  0x7fd24ebb3859 in ???
#2  0x7fd24ebb453f in ???
#3  0x56360c9a60bc in ???
#4  0x56360c9a192e in ???
#5  0x7fd24e849082 in __libc_start_main
	at ../csu/libc-start.c:308
#6  0x56360c9a196d in ???
#7  0xffffffffffffffff in ???
