 running on    6 nodes
 distr:  one band on    1 nodes,    6 groups
 md.x 0.99
 POSCAR found :  1 types and     7056 ions
Rc and Rl:   5.500000  7.321000
 TIPO = eam     
 TIPO1 = uknown p
 Using EAM

 EAM parameters: 
 C  =   9.9634  EPS  = 0.2048  A  = 3.5678  M  = 3.127  N  =  6.366  R1 =   5.500000


 ----------------------------------------------------------------------------- 
|                                                                             |
|           W    W    AA    RRRRR   N    N  II  N    N   GGGG   !!!           |
|           W    W   A  A   R    R  NN   N  II  NN   N  G    G  !!!           |
|           W    W  A    A  R    R  N N  N  II  N N  N  G       !!!           |
|           W WW W  AAAAAA  RRRRR   N  N N  II  N  N N  G  GGG   !            |
|           WW  WW  A    A  R   R   N   NN  II  N   NN  G    G                |
|           W    W  A    A  R    R  N    N  II  N    N   GGGG   !!!           |
|                                                                             |
|      VASP found  21165 degrees of freedom                                   |
|      the temperature will equal 2*E(kin)/ (degrees of freedom)              |
|      this differs from previous releases, where T was 2*E(kin)/(3 NIONS).   |
|      The new definition is more consistent                                  |
|                                                                             |
 ----------------------------------------------------------------------------- 

 Random init:        3661       11232
 Random init:        3661       11232
 Random init:        3661       11232
 Random init:        3661       11232
 Random init:        3661       11232
 Random init:        3661       11232
 alloco spazio per displ
       10 T=  3347. E= -.29231809E+05 F= -.32284448E+05 EK= 0.30526E+04 SP= 0.00E+00 SK= 0.00E+00
       20 T=  3276. E= -.29231572E+05 F= -.32218932E+05 EK= 0.29874E+04 SP= 0.00E+00 SK= 0.00E+00
       30 T=  3320. E= -.29231677E+05 F= -.32259029E+05 EK= 0.30274E+04 SP= 0.00E+00 SK= 0.00E+00
       40 T=  3350. E= -.29231799E+05 F= -.32286496E+05 EK= 0.30547E+04 SP= 0.00E+00 SK= 0.00E+00
       50 T=  3288. E= -.29231655E+05 F= -.32230416E+05 EK= 0.29988E+04 SP= 0.00E+00 SK= 0.00E+00
       60 T=  3278. E= -.29231677E+05 F= -.32221082E+05 EK= 0.29894E+04 SP= 0.00E+00 SK= 0.00E+00
       70 T=  3288. E= -.29231606E+05 F= -.32229732E+05 EK= 0.29981E+04 SP= 0.00E+00 SK= 0.00E+00
       80 T=  3320. E= -.29231675E+05 F= -.32259142E+05 EK= 0.30275E+04 SP= 0.00E+00 SK= 0.00E+00
       90 T=  3296. E= -.29231588E+05 F= -.32237122E+05 EK= 0.30055E+04 SP= 0.00E+00 SK= 0.00E+00
      100 T=  3274. E= -.29231735E+05 F= -.32217096E+05 EK= 0.29854E+04 SP= 0.00E+00 SK= 0.00E+00
      110 T=  3232. E= -.29231567E+05 F= -.32179287E+05 EK= 0.29477E+04 SP= 0.00E+00 SK= 0.00E+00
      120 T=  3304. E= -.29231759E+05 F= -.32245028E+05 EK= 0.30133E+04 SP= 0.00E+00 SK= 0.00E+00
      130 T=  3271. E= -.29231634E+05 F= -.32214806E+05 EK= 0.29832E+04 SP= 0.00E+00 SK= 0.00E+00
      140 T=  3246. E= -.29231595E+05 F= -.32191725E+05 EK= 0.29601E+04 SP= 0.00E+00 SK= 0.00E+00
      150 T=  3287. E= -.29231782E+05 F= -.32229717E+05 EK= 0.29979E+04 SP= 0.00E+00 SK= 0.00E+00
      160 T=  3254. E= -.29231653E+05 F= -.32199444E+05 EK= 0.29678E+04 SP= 0.00E+00 SK= 0.00E+00
      170 T=  3278. E= -.29231735E+05 F= -.32221074E+05 EK= 0.29893E+04 SP= 0.00E+00 SK= 0.00E+00
      180 T=  3314. E= -.29231714E+05 F= -.32253986E+05 EK= 0.30223E+04 SP= 0.00E+00 SK= 0.00E+00
      190 T=  3318. E= -.29231776E+05 F= -.32257966E+05 EK= 0.30262E+04 SP= 0.00E+00 SK= 0.00E+00
      200 T=  3295. E= -.29231713E+05 F= -.32236643E+05 EK= 0.30049E+04 SP= 0.00E+00 SK= 0.00E+00
      210 T=  3321. E= -.29231791E+05 F= -.32259926E+05 EK= 0.30281E+04 SP= 0.00E+00 SK= 0.00E+00
      220 T=  3322. E= -.29231852E+05 F= -.32261459E+05 EK= 0.30296E+04 SP= 0.00E+00 SK= 0.00E+00
      230 T=  3252. E= -.29231735E+05 F= -.32197659E+05 EK= 0.29659E+04 SP= 0.00E+00 SK= 0.00E+00
      240 T=  3273. E= -.29231813E+05 F= -.32216745E+05 EK= 0.29849E+04 SP= 0.00E+00 SK= 0.00E+00
      250 T=  3289. E= -.29231750E+05 F= -.32230925E+05 EK= 0.29992E+04 SP= 0.00E+00 SK= 0.00E+00
      260 T=  3284. E= -.29231750E+05 F= -.32226722E+05 EK= 0.29950E+04 SP= 0.00E+00 SK= 0.00E+00
      270 T=  3284. E= -.29231749E+05 F= -.32226376E+05 EK= 0.29946E+04 SP= 0.00E+00 SK= 0.00E+00
      280 T=  3286. E= -.29231735E+05 F= -.32228801E+05 EK= 0.29971E+04 SP= 0.00E+00 SK= 0.00E+00
      290 T=  3307. E= -.29231816E+05 F= -.32247665E+05 EK= 0.30158E+04 SP= 0.00E+00 SK= 0.00E+00
      300 T=  3302. E= -.29231758E+05 F= -.32243420E+05 EK= 0.30117E+04 SP= 0.00E+00 SK= 0.00E+00
      310 T=  3318. E= -.29231841E+05 F= -.32257793E+05 EK= 0.30260E+04 SP= 0.00E+00 SK= 0.00E+00
      320 T=  3265. E= -.29231715E+05 F= -.32208833E+05 EK= 0.29771E+04 SP= 0.00E+00 SK= 0.00E+00
      330 T=  3309. E= -.29231815E+05 F= -.32249607E+05 EK= 0.30178E+04 SP= 0.00E+00 SK= 0.00E+00
      340 T=  3315. E= -.29231795E+05 F= -.32255271E+05 EK= 0.30235E+04 SP= 0.00E+00 SK= 0.00E+00
      350 T=  3270. E= -.29231662E+05 F= -.32213971E+05 EK= 0.29823E+04 SP= 0.00E+00 SK= 0.00E+00
      360 T=  3311. E= -.29231791E+05 F= -.32251401E+05 EK= 0.30196E+04 SP= 0.00E+00 SK= 0.00E+00
      370 T=  3291. E= -.29231718E+05 F= -.32232781E+05 EK= 0.30011E+04 SP= 0.00E+00 SK= 0.00E+00
      380 T=  3306. E= -.29231818E+05 F= -.32246463E+05 EK= 0.30146E+04 SP= 0.00E+00 SK= 0.00E+00
      390 T=  3288. E= -.29231751E+05 F= -.32230394E+05 EK= 0.29986E+04 SP= 0.00E+00 SK= 0.00E+00
      400 T=  3297. E= -.29231804E+05 F= -.32238025E+05 EK= 0.30062E+04 SP= 0.00E+00 SK= 0.00E+00
      410 T=  3274. E= -.29231757E+05 F= -.32217242E+05 EK= 0.29855E+04 SP= 0.00E+00 SK= 0.00E+00
      420 T=  3261. E= -.29231770E+05 F= -.32205454E+05 EK= 0.29737E+04 SP= 0.00E+00 SK= 0.00E+00
      430 T=  3240. E= -.29231665E+05 F= -.32186372E+05 EK= 0.29547E+04 SP= 0.00E+00 SK= 0.00E+00
      440 T=  3286. E= -.29231780E+05 F= -.32228479E+05 EK= 0.29967E+04 SP= 0.00E+00 SK= 0.00E+00
      450 T=  3303. E= -.29231694E+05 F= -.32243749E+05 EK= 0.30121E+04 SP= 0.00E+00 SK= 0.00E+00
      460 T=  3320. E= -.29231808E+05 F= -.32259608E+05 EK= 0.30278E+04 SP= 0.00E+00 SK= 0.00E+00
      470 T=  3280. E= -.29231661E+05 F= -.32222713E+05 EK= 0.29911E+04 SP= 0.00E+00 SK= 0.00E+00
      480 T=  3306. E= -.29231764E+05 F= -.32246625E+05 EK= 0.30149E+04 SP= 0.00E+00 SK= 0.00E+00
      490 T=  3304. E= -.29231664E+05 F= -.32245123E+05 EK= 0.30135E+04 SP= 0.00E+00 SK= 0.00E+00
      500 T=  3313. E= -.29231766E+05 F= -.32253316E+05 EK= 0.30216E+04 SP= 0.00E+00 SK= 0.00E+00
      510 T=  3279. E= -.29231677E+05 F= -.32221520E+05 EK= 0.29898E+04 SP= 0.00E+00 SK= 0.00E+00
      520 T=  3256. E= -.29231667E+05 F= -.32201259E+05 EK= 0.29696E+04 SP= 0.00E+00 SK= 0.00E+00
      530 T=  3252. E= -.29231671E+05 F= -.32197504E+05 EK= 0.29658E+04 SP= 0.00E+00 SK= 0.00E+00
      540 T=  3273. E= -.29231771E+05 F= -.32216592E+05 EK= 0.29848E+04 SP= 0.00E+00 SK= 0.00E+00
      550 T=  3258. E= -.29231698E+05 F= -.32203137E+05 EK= 0.29714E+04 SP= 0.00E+00 SK= 0.00E+00
      560 T=  3286. E= -.29231738E+05 F= -.32228403E+05 EK= 0.29967E+04 SP= 0.00E+00 SK= 0.00E+00
      570 T=  3313. E= -.29231746E+05 F= -.32252793E+05 EK= 0.30210E+04 SP= 0.00E+00 SK= 0.00E+00
      580 T=  3306. E= -.29231688E+05 F= -.32246993E+05 EK= 0.30153E+04 SP= 0.00E+00 SK= 0.00E+00
      590 T=  3299. E= -.29231610E+05 F= -.32240062E+05 EK= 0.30085E+04 SP= 0.00E+00 SK= 0.00E+00
      600 T=  3336. E= -.29231650E+05 F= -.32273630E+05 EK= 0.30420E+04 SP= 0.00E+00 SK= 0.00E+00
      610 T=  3300. E= -.29231577E+05 F= -.32241082E+05 EK= 0.30095E+04 SP= 0.00E+00 SK= 0.00E+00
      620 T=  3283. E= -.29231529E+05 F= -.32225124E+05 EK= 0.29936E+04 SP= 0.00E+00 SK= 0.00E+00
      630 T=  3327. E= -.29231647E+05 F= -.32265682E+05 EK= 0.30340E+04 SP= 0.00E+00 SK= 0.00E+00
      640 T=  3285. E= -.29231573E+05 F= -.32227091E+05 EK= 0.29955E+04 SP= 0.00E+00 SK= 0.00E+00
      650 T=  3243. E= -.29231546E+05 F= -.32188967E+05 EK= 0.29574E+04 SP= 0.00E+00 SK= 0.00E+00
      660 T=  3278. E= -.29231585E+05 F= -.32221157E+05 EK= 0.29896E+04 SP= 0.00E+00 SK= 0.00E+00
      670 T=  3321. E= -.29231733E+05 F= -.32260017E+05 EK= 0.30283E+04 SP= 0.00E+00 SK= 0.00E+00
      680 T=  3267. E= -.29231564E+05 F= -.32210638E+05 EK= 0.29791E+04 SP= 0.00E+00 SK= 0.00E+00
      690 T=  3280. E= -.29231674E+05 F= -.32222854E+05 EK= 0.29912E+04 SP= 0.00E+00 SK= 0.00E+00
      700 T=  3289. E= -.29231616E+05 F= -.32230703E+05 EK= 0.29991E+04 SP= 0.00E+00 SK= 0.00E+00
      710 T=  3277. E= -.29231630E+05 F= -.32220261E+05 EK= 0.29886E+04 SP= 0.00E+00 SK= 0.00E+00
      720 T=  3288. E= -.29231736E+05 F= -.32229727E+05 EK= 0.29980E+04 SP= 0.00E+00 SK= 0.00E+00
      730 T=  3242. E= -.29231648E+05 F= -.32187909E+05 EK= 0.29563E+04 SP= 0.00E+00 SK= 0.00E+00
      740 T=  3296. E= -.29231699E+05 F= -.32237013E+05 EK= 0.30053E+04 SP= 0.00E+00 SK= 0.00E+00
      750 T=  3338. E= -.29231790E+05 F= -.32275389E+05 EK= 0.30436E+04 SP= 0.00E+00 SK= 0.00E+00
      760 T=  3273. E= -.29231675E+05 F= -.32216134E+05 EK= 0.29845E+04 SP= 0.00E+00 SK= 0.00E+00
      770 T=  3253. E= -.29231676E+05 F= -.32197946E+05 EK= 0.29663E+04 SP= 0.00E+00 SK= 0.00E+00
      780 T=  3290. E= -.29231756E+05 F= -.32231923E+05 EK= 0.30002E+04 SP= 0.00E+00 SK= 0.00E+00
      790 T=  3304. E= -.29231620E+05 F= -.32244500E+05 EK= 0.30129E+04 SP= 0.00E+00 SK= 0.00E+00
      800 T=  3304. E= -.29231658E+05 F= -.32244679E+05 EK= 0.30130E+04 SP= 0.00E+00 SK= 0.00E+00
      810 T=  3279. E= -.29231618E+05 F= -.32222300E+05 EK= 0.29907E+04 SP= 0.00E+00 SK= 0.00E+00
      820 T=  3291. E= -.29231679E+05 F= -.32232932E+05 EK= 0.30013E+04 SP= 0.00E+00 SK= 0.00E+00
      830 T=  3248. E= -.29231605E+05 F= -.32194011E+05 EK= 0.29624E+04 SP= 0.00E+00 SK= 0.00E+00
      840 T=  3252. E= -.29231592E+05 F= -.32196750E+05 EK= 0.29652E+04 SP= 0.00E+00 SK= 0.00E+00
      850 T=  3323. E= -.29231698E+05 F= -.32261774E+05 EK= 0.30301E+04 SP= 0.00E+00 SK= 0.00E+00
      860 T=  3302. E= -.29231606E+05 F= -.32243246E+05 EK= 0.30116E+04 SP= 0.00E+00 SK= 0.00E+00
      870 T=  3301. E= -.29231548E+05 F= -.32241699E+05 EK= 0.30102E+04 SP= 0.00E+00 SK= 0.00E+00
      880 T=  3338. E= -.29231756E+05 F= -.32275353E+05 EK= 0.30436E+04 SP= 0.00E+00 SK= 0.00E+00
      890 T=  3260. E= -.29231656E+05 F= -.32204934E+05 EK= 0.29733E+04 SP= 0.00E+00 SK= 0.00E+00
      900 T=  3250. E= -.29231678E+05 F= -.32195556E+05 EK= 0.29639E+04 SP= 0.00E+00 SK= 0.00E+00
      910 T=  3309. E= -.29231716E+05 F= -.32248910E+05 EK= 0.30172E+04 SP= 0.00E+00 SK= 0.00E+00
      920 T=  3286. E= -.29231656E+05 F= -.32228195E+05 EK= 0.29965E+04 SP= 0.00E+00 SK= 0.00E+00
      930 T=  3279. E= -.29231665E+05 F= -.32221827E+05 EK= 0.29902E+04 SP= 0.00E+00 SK= 0.00E+00
      940 T=  3308. E= -.29231681E+05 F= -.32248356E+05 EK= 0.30167E+04 SP= 0.00E+00 SK= 0.00E+00
      950 T=  3294. E= -.29231639E+05 F= -.32235963E+05 EK= 0.30043E+04 SP= 0.00E+00 SK= 0.00E+00
      960 T=  3291. E= -.29231716E+05 F= -.32232602E+05 EK= 0.30009E+04 SP= 0.00E+00 SK= 0.00E+00
      970 T=  3270. E= -.29231662E+05 F= -.32213572E+05 EK= 0.29819E+04 SP= 0.00E+00 SK= 0.00E+00
      980 T=  3282. E= -.29231669E+05 F= -.32224304E+05 EK= 0.29926E+04 SP= 0.00E+00 SK= 0.00E+00
      990 T=  3299. E= -.29231729E+05 F= -.32240516E+05 EK= 0.30088E+04 SP= 0.00E+00 SK= 0.00E+00
     1000 T=  3272. E= -.29231652E+05 F= -.32215649E+05 EK= 0.29840E+04 SP= 0.00E+00 SK= 0.00E+00
     1010 T=  3268. E= -.29231607E+05 F= -.32212084E+05 EK= 0.29805E+04 SP= 0.00E+00 SK= 0.00E+00
     1020 T=  3288. E= -.29231610E+05 F= -.32229701E+05 EK= 0.29981E+04 SP= 0.00E+00 SK= 0.00E+00
     1030 T=  3286. E= -.29231618E+05 F= -.32228091E+05 EK= 0.29965E+04 SP= 0.00E+00 SK= 0.00E+00
     1040 T=  3260. E= -.29231574E+05 F= -.32204695E+05 EK= 0.29731E+04 SP= 0.00E+00 SK= 0.00E+00
     1050 T=  3265. E= -.29231618E+05 F= -.32209496E+05 EK= 0.29779E+04 SP= 0.00E+00 SK= 0.00E+00
     1060 T=  3304. E= -.29231599E+05 F= -.32244722E+05 EK= 0.30131E+04 SP= 0.00E+00 SK= 0.00E+00
     1070 T=  3326. E= -.29231596E+05 F= -.32264455E+05 EK= 0.30329E+04 SP= 0.00E+00 SK= 0.00E+00
     1080 T=  3305. E= -.29231516E+05 F= -.32245064E+05 EK= 0.30135E+04 SP= 0.00E+00 SK= 0.00E+00
     1090 T=  3331. E= -.29231583E+05 F= -.32268989E+05 EK= 0.30374E+04 SP= 0.00E+00 SK= 0.00E+00
     1100 T=  3338. E= -.29231603E+05 F= -.32275772E+05 EK= 0.30442E+04 SP= 0.00E+00 SK= 0.00E+00
     1110 T=  3306. E= -.29231563E+05 F= -.32246435E+05 EK= 0.30149E+04 SP= 0.00E+00 SK= 0.00E+00
     1120 T=  3268. E= -.29231484E+05 F= -.32211458E+05 EK= 0.29800E+04 SP= 0.00E+00 SK= 0.00E+00
     1130 T=  3260. E= -.29231513E+05 F= -.32204760E+05 EK= 0.29732E+04 SP= 0.00E+00 SK= 0.00E+00
     1140 T=  3256. E= -.29231526E+05 F= -.32200655E+05 EK= 0.29691E+04 SP= 0.00E+00 SK= 0.00E+00
     1150 T=  3261. E= -.29231480E+05 F= -.32205449E+05 EK= 0.29740E+04 SP= 0.00E+00 SK= 0.00E+00
     1160 T=  3296. E= -.29231644E+05 F= -.32237485E+05 EK= 0.30058E+04 SP= 0.00E+00 SK= 0.00E+00
     1170 T=  3260. E= -.29231502E+05 F= -.32204773E+05 EK= 0.29733E+04 SP= 0.00E+00 SK= 0.00E+00
     1180 T=  3293. E= -.29231623E+05 F= -.32234934E+05 EK= 0.30033E+04 SP= 0.00E+00 SK= 0.00E+00
     1190 T=  3309. E= -.29231568E+05 F= -.32249447E+05 EK= 0.30179E+04 SP= 0.00E+00 SK= 0.00E+00
     1200 T=  3318. E= -.29231595E+05 F= -.32257725E+05 EK= 0.30261E+04 SP= 0.00E+00 SK= 0.00E+00
     1210 T=  3276. E= -.29231499E+05 F= -.32218577E+05 EK= 0.29871E+04 SP= 0.00E+00 SK= 0.00E+00
     1220 T=  3291. E= -.29231500E+05 F= -.32232764E+05 EK= 0.30013E+04 SP= 0.00E+00 SK= 0.00E+00
     1230 T=  3343. E= -.29231633E+05 F= -.32279838E+05 EK= 0.30482E+04 SP= 0.00E+00 SK= 0.00E+00
     1240 T=  3277. E= -.29231447E+05 F= -.32220184E+05 EK= 0.29887E+04 SP= 0.00E+00 SK= 0.00E+00
     1250 T=  3279. E= -.29231478E+05 F= -.32222061E+05 EK= 0.29906E+04 SP= 0.00E+00 SK= 0.00E+00
     1260 T=  3310. E= -.29231479E+05 F= -.32250319E+05 EK= 0.30188E+04 SP= 0.00E+00 SK= 0.00E+00
     1270 T=  3296. E= -.29231509E+05 F= -.32237427E+05 EK= 0.30059E+04 SP= 0.00E+00 SK= 0.00E+00
     1280 T=  3255. E= -.29231459E+05 F= -.32200030E+05 EK= 0.29686E+04 SP= 0.00E+00 SK= 0.00E+00
     1290 T=  3249. E= -.29231445E+05 F= -.32194755E+05 EK= 0.29633E+04 SP= 0.00E+00 SK= 0.00E+00
     1300 T=  3295. E= -.29231451E+05 F= -.32235842E+05 EK= 0.30044E+04 SP= 0.00E+00 SK= 0.00E+00
     1310 T=  3325. E= -.29231535E+05 F= -.32263861E+05 EK= 0.30323E+04 SP= 0.00E+00 SK= 0.00E+00
     1320 T=  3289. E= -.29231383E+05 F= -.32231008E+05 EK= 0.29996E+04 SP= 0.00E+00 SK= 0.00E+00
     1330 T=  3294. E= -.29231443E+05 F= -.32235767E+05 EK= 0.30043E+04 SP= 0.00E+00 SK= 0.00E+00
     1340 T=  3268. E= -.29231386E+05 F= -.32211878E+05 EK= 0.29805E+04 SP= 0.00E+00 SK= 0.00E+00
     1350 T=  3270. E= -.29231381E+05 F= -.32213311E+05 EK= 0.29819E+04 SP= 0.00E+00 SK= 0.00E+00
     1360 T=  3288. E= -.29231325E+05 F= -.32229786E+05 EK= 0.29985E+04 SP= 0.00E+00 SK= 0.00E+00
     1370 T=  3316. E= -.29231377E+05 F= -.32255079E+05 EK= 0.30237E+04 SP= 0.00E+00 SK= 0.00E+00
     1380 T=  3277. E= -.29231322E+05 F= -.32219835E+05 EK= 0.29885E+04 SP= 0.00E+00 SK= 0.00E+00
     1390 T=  3256. E= -.29231299E+05 F= -.32200625E+05 EK= 0.29693E+04 SP= 0.00E+00 SK= 0.00E+00
     1400 T=  3299. E= -.29231335E+05 F= -.32239796E+05 EK= 0.30085E+04 SP= 0.00E+00 SK= 0.00E+00
     1410 T=  3304. E= -.29231252E+05 F= -.32243882E+05 EK= 0.30126E+04 SP= 0.00E+00 SK= 0.00E+00
     1420 T=  3319. E= -.29231257E+05 F= -.32258260E+05 EK= 0.30270E+04 SP= 0.00E+00 SK= 0.00E+00
     1430 T=  3322. E= -.29231275E+05 F= -.32260612E+05 EK= 0.30293E+04 SP= 0.00E+00 SK= 0.00E+00
     1440 T=  3296. E= -.29231260E+05 F= -.32237108E+05 EK= 0.30058E+04 SP= 0.00E+00 SK= 0.00E+00
     1450 T=  3267. E= -.29231218E+05 F= -.32210767E+05 EK= 0.29795E+04 SP= 0.00E+00 SK= 0.00E+00
     1460 T=  3294. E= -.29231272E+05 F= -.32234917E+05 EK= 0.30036E+04 SP= 0.00E+00 SK= 0.00E+00
     1470 T=  3305. E= -.29231301E+05 F= -.32245041E+05 EK= 0.30137E+04 SP= 0.00E+00 SK= 0.00E+00
     1480 T=  3272. E= -.29231190E+05 F= -.32215242E+05 EK= 0.29841E+04 SP= 0.00E+00 SK= 0.00E+00
     1490 T=  3288. E= -.29231216E+05 F= -.32230025E+05 EK= 0.29988E+04 SP= 0.00E+00 SK= 0.00E+00
     1500 T=  3296. E= -.29231201E+05 F= -.32237253E+05 EK= 0.30061E+04 SP= 0.00E+00 SK= 0.00E+00
     1510 T=  3304. E= -.29231243E+05 F= -.32244263E+05 EK= 0.30130E+04 SP= 0.00E+00 SK= 0.00E+00
     1520 T=  3270. E= -.29231188E+05 F= -.32213606E+05 EK= 0.29824E+04 SP= 0.00E+00 SK= 0.00E+00
     1530 T=  3272. E= -.29231242E+05 F= -.32214754E+05 EK= 0.29835E+04 SP= 0.00E+00 SK= 0.00E+00
     1540 T=  3270. E= -.29231242E+05 F= -.32212895E+05 EK= 0.29817E+04 SP= 0.00E+00 SK= 0.00E+00
     1550 T=  3248. E= -.29231160E+05 F= -.32192885E+05 EK= 0.29617E+04 SP= 0.00E+00 SK= 0.00E+00
     1560 T=  3311. E= -.29231271E+05 F= -.32250918E+05 EK= 0.30196E+04 SP= 0.00E+00 SK= 0.00E+00
     1570 T=  3332. E= -.29231260E+05 F= -.32269762E+05 EK= 0.30385E+04 SP= 0.00E+00 SK= 0.00E+00
     1580 T=  3307. E= -.29231193E+05 F= -.32246940E+05 EK= 0.30157E+04 SP= 0.00E+00 SK= 0.00E+00
     1590 T=  3292. E= -.29231192E+05 F= -.32233072E+05 EK= 0.30019E+04 SP= 0.00E+00 SK= 0.00E+00
     1600 T=  3282. E= -.29231211E+05 F= -.32223844E+05 EK= 0.29926E+04 SP= 0.00E+00 SK= 0.00E+00
     1610 T=  3270. E= -.29231131E+05 F= -.32212750E+05 EK= 0.29816E+04 SP= 0.00E+00 SK= 0.00E+00
     1620 T=  3287. E= -.29231146E+05 F= -.32228963E+05 EK= 0.29978E+04 SP= 0.00E+00 SK= 0.00E+00
     1630 T=  3280. E= -.29231126E+05 F= -.32222423E+05 EK= 0.29913E+04 SP= 0.00E+00 SK= 0.00E+00
     1640 T=  3287. E= -.29231118E+05 F= -.32228422E+05 EK= 0.29973E+04 SP= 0.00E+00 SK= 0.00E+00
     1650 T=  3312. E= -.29231162E+05 F= -.32251368E+05 EK= 0.30202E+04 SP= 0.00E+00 SK= 0.00E+00
     1660 T=  3285. E= -.29231069E+05 F= -.32226747E+05 EK= 0.29957E+04 SP= 0.00E+00 SK= 0.00E+00
     1670 T=  3300. E= -.29231124E+05 F= -.32240915E+05 EK= 0.30098E+04 SP= 0.00E+00 SK= 0.00E+00
     1680 T=  3308. E= -.29231176E+05 F= -.32247609E+05 EK= 0.30164E+04 SP= 0.00E+00 SK= 0.00E+00
     1690 T=  3282. E= -.29231176E+05 F= -.32223815E+05 EK= 0.29926E+04 SP= 0.00E+00 SK= 0.00E+00
     1700 T=  3273. E= -.29231195E+05 F= -.32216310E+05 EK= 0.29851E+04 SP= 0.00E+00 SK= 0.00E+00
     1710 T=  3288. E= -.29231220E+05 F= -.32230111E+05 EK= 0.29989E+04 SP= 0.00E+00 SK= 0.00E+00
     1720 T=  3285. E= -.29231194E+05 F= -.32227331E+05 EK= 0.29961E+04 SP= 0.00E+00 SK= 0.00E+00
     1730 T=  3298. E= -.29231204E+05 F= -.32238829E+05 EK= 0.30076E+04 SP= 0.00E+00 SK= 0.00E+00
     1740 T=  3320. E= -.29231293E+05 F= -.32259171E+05 EK= 0.30279E+04 SP= 0.00E+00 SK= 0.00E+00
     1750 T=  3255. E= -.29231204E+05 F= -.32199578E+05 EK= 0.29684E+04 SP= 0.00E+00 SK= 0.00E+00
     1760 T=  3239. E= -.29231235E+05 F= -.32184591E+05 EK= 0.29534E+04 SP= 0.00E+00 SK= 0.00E+00
     1770 T=  3272. E= -.29231273E+05 F= -.32214862E+05 EK= 0.29836E+04 SP= 0.00E+00 SK= 0.00E+00
     1780 T=  3286. E= -.29231209E+05 F= -.32228232E+05 EK= 0.29970E+04 SP= 0.00E+00 SK= 0.00E+00
     1790 T=  3313. E= -.29231288E+05 F= -.32252200E+05 EK= 0.30209E+04 SP= 0.00E+00 SK= 0.00E+00
     1800 T=  3299. E= -.29231217E+05 F= -.32239290E+05 EK= 0.30081E+04 SP= 0.00E+00 SK= 0.00E+00
     1810 T=  3295. E= -.29231239E+05 F= -.32236444E+05 EK= 0.30052E+04 SP= 0.00E+00 SK= 0.00E+00
     1820 T=  3306. E= -.29231281E+05 F= -.32246482E+05 EK= 0.30152E+04 SP= 0.00E+00 SK= 0.00E+00
     1830 T=  3289. E= -.29231236E+05 F= -.32230655E+05 EK= 0.29994E+04 SP= 0.00E+00 SK= 0.00E+00
     1840 T=  3281. E= -.29231271E+05 F= -.32223579E+05 EK= 0.29923E+04 SP= 0.00E+00 SK= 0.00E+00
     1850 T=  3291. E= -.29231208E+05 F= -.32232454E+05 EK= 0.30012E+04 SP= 0.00E+00 SK= 0.00E+00
     1860 T=  3336. E= -.29231391E+05 F= -.32273428E+05 EK= 0.30420E+04 SP= 0.00E+00 SK= 0.00E+00
     1870 T=  3277. E= -.29231171E+05 F= -.32219443E+05 EK= 0.29883E+04 SP= 0.00E+00 SK= 0.00E+00
     1880 T=  3281. E= -.29231223E+05 F= -.32223051E+05 EK= 0.29918E+04 SP= 0.00E+00 SK= 0.00E+00
     1890 T=  3268. E= -.29231155E+05 F= -.32211332E+05 EK= 0.29802E+04 SP= 0.00E+00 SK= 0.00E+00
     1900 T=  3273. E= -.29231103E+05 F= -.32216240E+05 EK= 0.29851E+04 SP= 0.00E+00 SK= 0.00E+00
     1910 T=  3292. E= -.29231174E+05 F= -.32232852E+05 EK= 0.30017E+04 SP= 0.00E+00 SK= 0.00E+00
     1920 T=  3285. E= -.29231109E+05 F= -.32227151E+05 EK= 0.29960E+04 SP= 0.00E+00 SK= 0.00E+00
     1930 T=  3291. E= -.29231114E+05 F= -.32232724E+05 EK= 0.30016E+04 SP= 0.00E+00 SK= 0.00E+00
     1940 T=  3306. E= -.29231156E+05 F= -.32246161E+05 EK= 0.30150E+04 SP= 0.00E+00 SK= 0.00E+00
     1950 T=  3284. E= -.29231126E+05 F= -.32226178E+05 EK= 0.29951E+04 SP= 0.00E+00 SK= 0.00E+00
     1960 T=  3275. E= -.29231082E+05 F= -.32217795E+05 EK= 0.29867E+04 SP= 0.00E+00 SK= 0.00E+00
     1970 T=  3277. E= -.29231098E+05 F= -.32219201E+05 EK= 0.29881E+04 SP= 0.00E+00 SK= 0.00E+00
     1980 T=  3281. E= -.29231040E+05 F= -.32223264E+05 EK= 0.29922E+04 SP= 0.00E+00 SK= 0.00E+00
     1990 T=  3316. E= -.29231146E+05 F= -.32255438E+05 EK= 0.30243E+04 SP= 0.00E+00 SK= 0.00E+00
At line 1940 of file md.f90
Fortran runtime error: Unit number is negative and unit was not already opened with OPEN(NEWUNIT=...)

Error termination. Backtrace:
At line 1940 of file md.f90
Fortran runtime error: Unit number is negative and unit was not already opened with OPEN(NEWUNIT=...)

Error termination. Backtrace:
At line 1940 of file md.f90
Fortran runtime error: Unit number is negative and unit was not already opened with OPEN(NEWUNIT=...)

Error termination. Backtrace:
At line 1940 of file md.f90
Fortran runtime error: Unit number is negative and unit was not already opened with OPEN(NEWUNIT=...)

Error termination. Backtrace:
At line 1940 of file md.f90
Fortran runtime error: Unit number is negative and unit was not already opened with OPEN(NEWUNIT=...)

Error termination. Backtrace:
     2000 T=  3286. E= -.29230951E+05 F= -.32227739E+05 EK= 0.29968E+04 SP= 0.00E+00 SK= 0.00E+00
Rc and Rl:   5.500000  7.321000

Average number of steps between two list updates:  21.28
Average number of atoms in the shell:     0.01
#0  0x7ff31dac7d11 in ???
#1  0x7ff31dac8859 in ???
#2  0x7ff31dac953f in ???
#3  0x55e4e3e060bc in ???
#4  0x55e4e3e0192e in ???
#5  0x7ff31d75e082 in __libc_start_main
	at ../csu/libc-start.c:308
#6  0x55e4e3e0196d in ???
#7  0xffffffffffffffff in ???
#0  0x7fc325785d11 in ???
#1  0x7fc325786859 in ???
#2  0x7fc32578753f in ???
#3  0x55db71d070bc in ???
#4  0x55db71d0292e in ???
#5  0x7fc32541c082 in __libc_start_main
	at ../csu/libc-start.c:308
#6  0x55db71d0296d in ???
#7  0xffffffffffffffff in ???
#0  0x7fa63f8b4d11 in ???
#1  0x7fa63f8b5859 in ???
#2  0x7fa63f8b653f in ???
#3  0x557c1ba4e0bc in ???
#4  0x557c1ba4992e in ???
#5  0x7fa63f54b082 in __libc_start_main
	at ../csu/libc-start.c:308
#6  0x557c1ba4996d in ???
#7  0xffffffffffffffff in ???
#0  0x7fa9bb0f2d11 in ???
#1  0x7fa9bb0f3859 in ???
#2  0x7fa9bb0f453f in ???
#3  0x558ffecf10bc in ???
#4  0x558ffecec92e in ???
#5  0x7fa9bad89082 in __libc_start_main
	at ../csu/libc-start.c:308
#6  0x558ffecec96d in ???
#7  0xffffffffffffffff in ???
