 running on    6 nodes
 distr:  one band on    1 nodes,    6 groups
 md.x 0.99
 POSCAR found :  1 types and     7056 ions
Rc and Rl:   5.500000  7.321000
 TIPO = eam     
 TIPO1 = uknown p
 Using EAM

 EAM parameters: 
 C  =   9.9634  EPS  = 0.2048  A  = 3.5678  M  = 3.127  N  =  6.366  R1 =   5.500000


 ----------------------------------------------------------------------------- 
|                                                                             |
|           W    W    AA    RRRRR   N    N  II  N    N   GGGG   !!!           |
|           W    W   A  A   R    R  NN   N  II  NN   N  G    G  !!!           |
|           W    W  A    A  R    R  N N  N  II  N N  N  G       !!!           |
|           W WW W  AAAAAA  RRRRR   N  N N  II  N  N N  G  GGG   !            |
|           WW  WW  A    A  R   R   N   NN  II  N   NN  G    G                |
|           W    W  A    A  R    R  N    N  II  N    N   GGGG   !!!           |
|                                                                             |
|      VASP found  21165 degrees of freedom                                   |
|      the temperature will equal 2*E(kin)/ (degrees of freedom)              |
|      this differs from previous releases, where T was 2*E(kin)/(3 NIONS).   |
|      The new definition is more consistent                                  |
|                                                                             |
 ----------------------------------------------------------------------------- 

 Random init:        2151        9722
 Random init:        2151        9722
 Random init:        2151        9722
 Random init:        2151        9722
 Random init:        2151        9722
 Random init:        2151        9722
 alloco spazio per displ
       10 T=  4444. E= -.27173459E+05 F= -.31225882E+05 EK= 0.40524E+04 SP= 0.00E+00 SK= 0.00E+00
       20 T=  4337. E= -.27173196E+05 F= -.31128356E+05 EK= 0.39552E+04 SP= 0.00E+00 SK= 0.00E+00
       30 T=  4313. E= -.27173266E+05 F= -.31106377E+05 EK= 0.39331E+04 SP= 0.00E+00 SK= 0.00E+00
       40 T=  4297. E= -.27173329E+05 F= -.31091895E+05 EK= 0.39186E+04 SP= 0.00E+00 SK= 0.00E+00
       50 T=  4229. E= -.27173248E+05 F= -.31029404E+05 EK= 0.38562E+04 SP= 0.00E+00 SK= 0.00E+00
       60 T=  4242. E= -.27173249E+05 F= -.31041342E+05 EK= 0.38681E+04 SP= 0.00E+00 SK= 0.00E+00
       70 T=  4269. E= -.27173391E+05 F= -.31066429E+05 EK= 0.38930E+04 SP= 0.00E+00 SK= 0.00E+00
       80 T=  4222. E= -.27173220E+05 F= -.31023467E+05 EK= 0.38502E+04 SP= 0.00E+00 SK= 0.00E+00
       90 T=  4284. E= -.27173405E+05 F= -.31079972E+05 EK= 0.39066E+04 SP= 0.00E+00 SK= 0.00E+00
      100 T=  4319. E= -.27173415E+05 F= -.31112194E+05 EK= 0.39388E+04 SP= 0.00E+00 SK= 0.00E+00
      110 T=  4310. E= -.27173372E+05 F= -.31103609E+05 EK= 0.39302E+04 SP= 0.00E+00 SK= 0.00E+00
      120 T=  4304. E= -.27173347E+05 F= -.31098275E+05 EK= 0.39249E+04 SP= 0.00E+00 SK= 0.00E+00
      130 T=  4294. E= -.27173380E+05 F= -.31089397E+05 EK= 0.39160E+04 SP= 0.00E+00 SK= 0.00E+00
      140 T=  4292. E= -.27173390E+05 F= -.31087583E+05 EK= 0.39142E+04 SP= 0.00E+00 SK= 0.00E+00
      150 T=  4281. E= -.27173398E+05 F= -.31077283E+05 EK= 0.39039E+04 SP= 0.00E+00 SK= 0.00E+00
      160 T=  4281. E= -.27173321E+05 F= -.31076953E+05 EK= 0.39036E+04 SP= 0.00E+00 SK= 0.00E+00
      170 T=  4292. E= -.27173392E+05 F= -.31087650E+05 EK= 0.39143E+04 SP= 0.00E+00 SK= 0.00E+00
      180 T=  4265. E= -.27173339E+05 F= -.31062434E+05 EK= 0.38891E+04 SP= 0.00E+00 SK= 0.00E+00
      190 T=  4266. E= -.27173302E+05 F= -.31064023E+05 EK= 0.38907E+04 SP= 0.00E+00 SK= 0.00E+00
      200 T=  4295. E= -.27173495E+05 F= -.31090295E+05 EK= 0.39168E+04 SP= 0.00E+00 SK= 0.00E+00
      210 T=  4263. E= -.27173303E+05 F= -.31060516E+05 EK= 0.38872E+04 SP= 0.00E+00 SK= 0.00E+00
      220 T=  4306. E= -.27173559E+05 F= -.31100294E+05 EK= 0.39267E+04 SP= 0.00E+00 SK= 0.00E+00
      230 T=  4207. E= -.27173319E+05 F= -.31009679E+05 EK= 0.38364E+04 SP= 0.00E+00 SK= 0.00E+00
      240 T=  4240. E= -.27173422E+05 F= -.31040442E+05 EK= 0.38670E+04 SP= 0.00E+00 SK= 0.00E+00
      250 T=  4291. E= -.27173461E+05 F= -.31086671E+05 EK= 0.39132E+04 SP= 0.00E+00 SK= 0.00E+00
      260 T=  4261. E= -.27173301E+05 F= -.31059279E+05 EK= 0.38860E+04 SP= 0.00E+00 SK= 0.00E+00
      270 T=  4298. E= -.27173459E+05 F= -.31093290E+05 EK= 0.39198E+04 SP= 0.00E+00 SK= 0.00E+00
      280 T=  4260. E= -.27173334E+05 F= -.31058509E+05 EK= 0.38852E+04 SP= 0.00E+00 SK= 0.00E+00
      290 T=  4278. E= -.27173327E+05 F= -.31074848E+05 EK= 0.39015E+04 SP= 0.00E+00 SK= 0.00E+00
      300 T=  4316. E= -.27173391E+05 F= -.31108886E+05 EK= 0.39355E+04 SP= 0.00E+00 SK= 0.00E+00
      310 T=  4321. E= -.27173399E+05 F= -.31114315E+05 EK= 0.39409E+04 SP= 0.00E+00 SK= 0.00E+00
      320 T=  4315. E= -.27173260E+05 F= -.31108576E+05 EK= 0.39353E+04 SP= 0.00E+00 SK= 0.00E+00
      330 T=  4305. E= -.27173213E+05 F= -.31098898E+05 EK= 0.39257E+04 SP= 0.00E+00 SK= 0.00E+00
      340 T=  4300. E= -.27173227E+05 F= -.31094507E+05 EK= 0.39213E+04 SP= 0.00E+00 SK= 0.00E+00
      350 T=  4300. E= -.27173235E+05 F= -.31094516E+05 EK= 0.39213E+04 SP= 0.00E+00 SK= 0.00E+00
      360 T=  4258. E= -.27173139E+05 F= -.31056443E+05 EK= 0.38833E+04 SP= 0.00E+00 SK= 0.00E+00
      370 T=  4281. E= -.27173195E+05 F= -.31077622E+05 EK= 0.39044E+04 SP= 0.00E+00 SK= 0.00E+00
      380 T=  4303. E= -.27173200E+05 F= -.31097060E+05 EK= 0.39239E+04 SP= 0.00E+00 SK= 0.00E+00
      390 T=  4302. E= -.27173402E+05 F= -.31096277E+05 EK= 0.39229E+04 SP= 0.00E+00 SK= 0.00E+00
      400 T=  4234. E= -.27173189E+05 F= -.31034019E+05 EK= 0.38608E+04 SP= 0.00E+00 SK= 0.00E+00
      410 T=  4307. E= -.27173433E+05 F= -.31100913E+05 EK= 0.39275E+04 SP= 0.00E+00 SK= 0.00E+00
      420 T=  4297. E= -.27173345E+05 F= -.31091888E+05 EK= 0.39185E+04 SP= 0.00E+00 SK= 0.00E+00
      430 T=  4262. E= -.27173306E+05 F= -.31060208E+05 EK= 0.38869E+04 SP= 0.00E+00 SK= 0.00E+00
      440 T=  4290. E= -.27173314E+05 F= -.31085277E+05 EK= 0.39120E+04 SP= 0.00E+00 SK= 0.00E+00
      450 T=  4325. E= -.27173324E+05 F= -.31117591E+05 EK= 0.39443E+04 SP= 0.00E+00 SK= 0.00E+00
      460 T=  4295. E= -.27173312E+05 F= -.31089841E+05 EK= 0.39165E+04 SP= 0.00E+00 SK= 0.00E+00
      470 T=  4254. E= -.27173303E+05 F= -.31052502E+05 EK= 0.38792E+04 SP= 0.00E+00 SK= 0.00E+00
      480 T=  4295. E= -.27173424E+05 F= -.31089850E+05 EK= 0.39164E+04 SP= 0.00E+00 SK= 0.00E+00
      490 T=  4285. E= -.27173360E+05 F= -.31081036E+05 EK= 0.39077E+04 SP= 0.00E+00 SK= 0.00E+00
      500 T=  4254. E= -.27173384E+05 F= -.31052550E+05 EK= 0.38792E+04 SP= 0.00E+00 SK= 0.00E+00
      510 T=  4273. E= -.27173421E+05 F= -.31069827E+05 EK= 0.38964E+04 SP= 0.00E+00 SK= 0.00E+00
      520 T=  4253. E= -.27173420E+05 F= -.31052128E+05 EK= 0.38787E+04 SP= 0.00E+00 SK= 0.00E+00
      530 T=  4203. E= -.27173350E+05 F= -.31006556E+05 EK= 0.38332E+04 SP= 0.00E+00 SK= 0.00E+00
      540 T=  4270. E= -.27173453E+05 F= -.31067354E+05 EK= 0.38939E+04 SP= 0.00E+00 SK= 0.00E+00
      550 T=  4261. E= -.27173366E+05 F= -.31059109E+05 EK= 0.38857E+04 SP= 0.00E+00 SK= 0.00E+00
      560 T=  4240. E= -.27173460E+05 F= -.31040420E+05 EK= 0.38670E+04 SP= 0.00E+00 SK= 0.00E+00
      570 T=  4190. E= -.27173319E+05 F= -.30994591E+05 EK= 0.38213E+04 SP= 0.00E+00 SK= 0.00E+00
      580 T=  4245. E= -.27173523E+05 F= -.31044817E+05 EK= 0.38713E+04 SP= 0.00E+00 SK= 0.00E+00
      590 T=  4254. E= -.27173458E+05 F= -.31052437E+05 EK= 0.38790E+04 SP= 0.00E+00 SK= 0.00E+00
      600 T=  4216. E= -.27173422E+05 F= -.31018064E+05 EK= 0.38446E+04 SP= 0.00E+00 SK= 0.00E+00
      610 T=  4204. E= -.27173405E+05 F= -.31006864E+05 EK= 0.38335E+04 SP= 0.00E+00 SK= 0.00E+00
      620 T=  4242. E= -.27173397E+05 F= -.31041785E+05 EK= 0.38684E+04 SP= 0.00E+00 SK= 0.00E+00
      630 T=  4292. E= -.27173483E+05 F= -.31087842E+05 EK= 0.39144E+04 SP= 0.00E+00 SK= 0.00E+00
      640 T=  4261. E= -.27173411E+05 F= -.31059466E+05 EK= 0.38861E+04 SP= 0.00E+00 SK= 0.00E+00
      650 T=  4260. E= -.27173472E+05 F= -.31058355E+05 EK= 0.38849E+04 SP= 0.00E+00 SK= 0.00E+00
      660 T=  4265. E= -.27173536E+05 F= -.31062854E+05 EK= 0.38893E+04 SP= 0.00E+00 SK= 0.00E+00
      670 T=  4246. E= -.27173595E+05 F= -.31045306E+05 EK= 0.38717E+04 SP= 0.00E+00 SK= 0.00E+00
      680 T=  4243. E= -.27173488E+05 F= -.31042890E+05 EK= 0.38694E+04 SP= 0.00E+00 SK= 0.00E+00
      690 T=  4238. E= -.27173466E+05 F= -.31037848E+05 EK= 0.38644E+04 SP= 0.00E+00 SK= 0.00E+00
      700 T=  4234. E= -.27173438E+05 F= -.31034508E+05 EK= 0.38611E+04 SP= 0.00E+00 SK= 0.00E+00
      710 T=  4254. E= -.27173492E+05 F= -.31052776E+05 EK= 0.38793E+04 SP= 0.00E+00 SK= 0.00E+00
      720 T=  4266. E= -.27173565E+05 F= -.31063832E+05 EK= 0.38903E+04 SP= 0.00E+00 SK= 0.00E+00
      730 T=  4268. E= -.27173539E+05 F= -.31065286E+05 EK= 0.38917E+04 SP= 0.00E+00 SK= 0.00E+00
      740 T=  4275. E= -.27173641E+05 F= -.31072229E+05 EK= 0.38986E+04 SP= 0.00E+00 SK= 0.00E+00
      750 T=  4234. E= -.27173422E+05 F= -.31034459E+05 EK= 0.38610E+04 SP= 0.00E+00 SK= 0.00E+00
      760 T=  4296. E= -.27173695E+05 F= -.31091202E+05 EK= 0.39175E+04 SP= 0.00E+00 SK= 0.00E+00
      770 T=  4247. E= -.27173395E+05 F= -.31046421E+05 EK= 0.38730E+04 SP= 0.00E+00 SK= 0.00E+00
      780 T=  4265. E= -.27173451E+05 F= -.31063079E+05 EK= 0.38896E+04 SP= 0.00E+00 SK= 0.00E+00
      790 T=  4293. E= -.27173568E+05 F= -.31088226E+05 EK= 0.39147E+04 SP= 0.00E+00 SK= 0.00E+00
      800 T=  4228. E= -.27173286E+05 F= -.31029333E+05 EK= 0.38560E+04 SP= 0.00E+00 SK= 0.00E+00
      810 T=  4273. E= -.27173435E+05 F= -.31070306E+05 EK= 0.38969E+04 SP= 0.00E+00 SK= 0.00E+00
      820 T=  4300. E= -.27173494E+05 F= -.31094964E+05 EK= 0.39215E+04 SP= 0.00E+00 SK= 0.00E+00
      830 T=  4236. E= -.27173513E+05 F= -.31036142E+05 EK= 0.38626E+04 SP= 0.00E+00 SK= 0.00E+00
      840 T=  4198. E= -.27173416E+05 F= -.31001641E+05 EK= 0.38282E+04 SP= 0.00E+00 SK= 0.00E+00
      850 T=  4235. E= -.27173364E+05 F= -.31035621E+05 EK= 0.38623E+04 SP= 0.00E+00 SK= 0.00E+00
      860 T=  4243. E= -.27173448E+05 F= -.31042604E+05 EK= 0.38692E+04 SP= 0.00E+00 SK= 0.00E+00
      870 T=  4212. E= -.27173391E+05 F= -.31014592E+05 EK= 0.38412E+04 SP= 0.00E+00 SK= 0.00E+00
      880 T=  4225. E= -.27173392E+05 F= -.31026459E+05 EK= 0.38531E+04 SP= 0.00E+00 SK= 0.00E+00
      890 T=  4243. E= -.27173350E+05 F= -.31042887E+05 EK= 0.38695E+04 SP= 0.00E+00 SK= 0.00E+00
      900 T=  4272. E= -.27173397E+05 F= -.31069347E+05 EK= 0.38960E+04 SP= 0.00E+00 SK= 0.00E+00
      910 T=  4260. E= -.27173378E+05 F= -.31057780E+05 EK= 0.38844E+04 SP= 0.00E+00 SK= 0.00E+00
      920 T=  4223. E= -.27173357E+05 F= -.31024393E+05 EK= 0.38510E+04 SP= 0.00E+00 SK= 0.00E+00
      930 T=  4236. E= -.27173368E+05 F= -.31036126E+05 EK= 0.38628E+04 SP= 0.00E+00 SK= 0.00E+00
      940 T=  4249. E= -.27173307E+05 F= -.31048175E+05 EK= 0.38749E+04 SP= 0.00E+00 SK= 0.00E+00
      950 T=  4286. E= -.27173223E+05 F= -.31081860E+05 EK= 0.39086E+04 SP= 0.00E+00 SK= 0.00E+00
      960 T=  4314. E= -.27173351E+05 F= -.31107449E+05 EK= 0.39341E+04 SP= 0.00E+00 SK= 0.00E+00
      970 T=  4200. E= -.27173243E+05 F= -.31003379E+05 EK= 0.38301E+04 SP= 0.00E+00 SK= 0.00E+00
      980 T=  4192. E= -.27173207E+05 F= -.30995658E+05 EK= 0.38225E+04 SP= 0.00E+00 SK= 0.00E+00
      990 T=  4293. E= -.27173375E+05 F= -.31088713E+05 EK= 0.39153E+04 SP= 0.00E+00 SK= 0.00E+00
     1000 T=  4269. E= -.27173222E+05 F= -.31066569E+05 EK= 0.38933E+04 SP= 0.00E+00 SK= 0.00E+00
     1010 T=  4245. E= -.27173264E+05 F= -.31044016E+05 EK= 0.38708E+04 SP= 0.00E+00 SK= 0.00E+00
     1020 T=  4218. E= -.27173267E+05 F= -.31019683E+05 EK= 0.38464E+04 SP= 0.00E+00 SK= 0.00E+00
     1030 T=  4226. E= -.27173246E+05 F= -.31027335E+05 EK= 0.38541E+04 SP= 0.00E+00 SK= 0.00E+00
     1040 T=  4256. E= -.27173348E+05 F= -.31054995E+05 EK= 0.38816E+04 SP= 0.00E+00 SK= 0.00E+00
     1050 T=  4254. E= -.27173297E+05 F= -.31052362E+05 EK= 0.38791E+04 SP= 0.00E+00 SK= 0.00E+00
     1060 T=  4245. E= -.27173215E+05 F= -.31044243E+05 EK= 0.38710E+04 SP= 0.00E+00 SK= 0.00E+00
     1070 T=  4239. E= -.27173284E+05 F= -.31038797E+05 EK= 0.38655E+04 SP= 0.00E+00 SK= 0.00E+00
     1080 T=  4197. E= -.27173185E+05 F= -.31000422E+05 EK= 0.38272E+04 SP= 0.00E+00 SK= 0.00E+00
     1090 T=  4240. E= -.27173272E+05 F= -.31039998E+05 EK= 0.38667E+04 SP= 0.00E+00 SK= 0.00E+00
     1100 T=  4235. E= -.27173260E+05 F= -.31035370E+05 EK= 0.38621E+04 SP= 0.00E+00 SK= 0.00E+00
     1110 T=  4179. E= -.27173157E+05 F= -.30983955E+05 EK= 0.38108E+04 SP= 0.00E+00 SK= 0.00E+00
     1120 T=  4219. E= -.27173219E+05 F= -.31020939E+05 EK= 0.38477E+04 SP= 0.00E+00 SK= 0.00E+00
     1130 T=  4230. E= -.27173282E+05 F= -.31030994E+05 EK= 0.38577E+04 SP= 0.00E+00 SK= 0.00E+00
     1140 T=  4214. E= -.27173123E+05 F= -.31016174E+05 EK= 0.38431E+04 SP= 0.00E+00 SK= 0.00E+00
     1150 T=  4257. E= -.27173244E+05 F= -.31054940E+05 EK= 0.38817E+04 SP= 0.00E+00 SK= 0.00E+00
     1160 T=  4218. E= -.27173174E+05 F= -.31019658E+05 EK= 0.38465E+04 SP= 0.00E+00 SK= 0.00E+00
     1170 T=  4181. E= -.27173085E+05 F= -.30985647E+05 EK= 0.38126E+04 SP= 0.00E+00 SK= 0.00E+00
     1180 T=  4197. E= -.27173146E+05 F= -.31000538E+05 EK= 0.38274E+04 SP= 0.00E+00 SK= 0.00E+00
     1190 T=  4191. E= -.27173101E+05 F= -.30995103E+05 EK= 0.38220E+04 SP= 0.00E+00 SK= 0.00E+00
     1200 T=  4205. E= -.27173015E+05 F= -.31007711E+05 EK= 0.38347E+04 SP= 0.00E+00 SK= 0.00E+00
     1210 T=  4275. E= -.27173183E+05 F= -.31071750E+05 EK= 0.38986E+04 SP= 0.00E+00 SK= 0.00E+00
     1220 T=  4210. E= -.27172984E+05 F= -.31012200E+05 EK= 0.38392E+04 SP= 0.00E+00 SK= 0.00E+00
     1230 T=  4221. E= -.27173129E+05 F= -.31022034E+05 EK= 0.38489E+04 SP= 0.00E+00 SK= 0.00E+00
     1240 T=  4190. E= -.27173086E+05 F= -.30993779E+05 EK= 0.38207E+04 SP= 0.00E+00 SK= 0.00E+00
     1250 T=  4200. E= -.27173090E+05 F= -.31002819E+05 EK= 0.38297E+04 SP= 0.00E+00 SK= 0.00E+00
     1260 T=  4206. E= -.27173136E+05 F= -.31008601E+05 EK= 0.38355E+04 SP= 0.00E+00 SK= 0.00E+00
     1270 T=  4204. E= -.27173139E+05 F= -.31006884E+05 EK= 0.38337E+04 SP= 0.00E+00 SK= 0.00E+00
     1280 T=  4176. E= -.27173140E+05 F= -.30981325E+05 EK= 0.38082E+04 SP= 0.00E+00 SK= 0.00E+00
     1290 T=  4206. E= -.27173136E+05 F= -.31009007E+05 EK= 0.38359E+04 SP= 0.00E+00 SK= 0.00E+00
     1300 T=  4256. E= -.27173264E+05 F= -.31054359E+05 EK= 0.38811E+04 SP= 0.00E+00 SK= 0.00E+00
     1310 T=  4219. E= -.27173089E+05 F= -.31020693E+05 EK= 0.38476E+04 SP= 0.00E+00 SK= 0.00E+00
     1320 T=  4243. E= -.27173134E+05 F= -.31042576E+05 EK= 0.38694E+04 SP= 0.00E+00 SK= 0.00E+00
     1330 T=  4275. E= -.27173151E+05 F= -.31071693E+05 EK= 0.38985E+04 SP= 0.00E+00 SK= 0.00E+00
     1340 T=  4264. E= -.27173222E+05 F= -.31061341E+05 EK= 0.38881E+04 SP= 0.00E+00 SK= 0.00E+00
     1350 T=  4233. E= -.27173078E+05 F= -.31033346E+05 EK= 0.38603E+04 SP= 0.00E+00 SK= 0.00E+00
     1360 T=  4262. E= -.27173174E+05 F= -.31059692E+05 EK= 0.38865E+04 SP= 0.00E+00 SK= 0.00E+00
     1370 T=  4250. E= -.27173031E+05 F= -.31048368E+05 EK= 0.38753E+04 SP= 0.00E+00 SK= 0.00E+00
     1380 T=  4217. E= -.27173125E+05 F= -.31018852E+05 EK= 0.38457E+04 SP= 0.00E+00 SK= 0.00E+00
     1390 T=  4187. E= -.27173044E+05 F= -.30991639E+05 EK= 0.38186E+04 SP= 0.00E+00 SK= 0.00E+00
     1400 T=  4239. E= -.27173253E+05 F= -.31038724E+05 EK= 0.38655E+04 SP= 0.00E+00 SK= 0.00E+00
     1410 T=  4175. E= -.27172987E+05 F= -.30979962E+05 EK= 0.38070E+04 SP= 0.00E+00 SK= 0.00E+00
     1420 T=  4243. E= -.27173107E+05 F= -.31042403E+05 EK= 0.38693E+04 SP= 0.00E+00 SK= 0.00E+00
     1430 T=  4252. E= -.27173018E+05 F= -.31050466E+05 EK= 0.38774E+04 SP= 0.00E+00 SK= 0.00E+00
     1440 T=  4236. E= -.27173116E+05 F= -.31035994E+05 EK= 0.38629E+04 SP= 0.00E+00 SK= 0.00E+00
     1450 T=  4211. E= -.27173018E+05 F= -.31012755E+05 EK= 0.38397E+04 SP= 0.00E+00 SK= 0.00E+00
     1460 T=  4224. E= -.27173073E+05 F= -.31024748E+05 EK= 0.38517E+04 SP= 0.00E+00 SK= 0.00E+00
     1470 T=  4212. E= -.27172956E+05 F= -.31014065E+05 EK= 0.38411E+04 SP= 0.00E+00 SK= 0.00E+00
     1480 T=  4229. E= -.27172997E+05 F= -.31029350E+05 EK= 0.38564E+04 SP= 0.00E+00 SK= 0.00E+00
     1490 T=  4218. E= -.27172980E+05 F= -.31019428E+05 EK= 0.38464E+04 SP= 0.00E+00 SK= 0.00E+00
     1500 T=  4193. E= -.27172934E+05 F= -.30996821E+05 EK= 0.38239E+04 SP= 0.00E+00 SK= 0.00E+00
     1510 T=  4188. E= -.27172966E+05 F= -.30991786E+05 EK= 0.38188E+04 SP= 0.00E+00 SK= 0.00E+00
     1520 T=  4162. E= -.27172939E+05 F= -.30968184E+05 EK= 0.37952E+04 SP= 0.00E+00 SK= 0.00E+00
     1530 T=  4129. E= -.27172799E+05 F= -.30937879E+05 EK= 0.37651E+04 SP= 0.00E+00 SK= 0.00E+00
     1540 T=  4198. E= -.27172920E+05 F= -.31000823E+05 EK= 0.38279E+04 SP= 0.00E+00 SK= 0.00E+00
     1550 T=  4184. E= -.27172820E+05 F= -.30988803E+05 EK= 0.38160E+04 SP= 0.00E+00 SK= 0.00E+00
     1560 T=  4153. E= -.27172757E+05 F= -.30959843E+05 EK= 0.37871E+04 SP= 0.00E+00 SK= 0.00E+00
     1570 T=  4188. E= -.27172879E+05 F= -.30992367E+05 EK= 0.38195E+04 SP= 0.00E+00 SK= 0.00E+00
     1580 T=  4209. E= -.27172756E+05 F= -.31011029E+05 EK= 0.38383E+04 SP= 0.00E+00 SK= 0.00E+00
     1590 T=  4262. E= -.27172871E+05 F= -.31059950E+05 EK= 0.38871E+04 SP= 0.00E+00 SK= 0.00E+00
     1600 T=  4232. E= -.27172908E+05 F= -.31031987E+05 EK= 0.38591E+04 SP= 0.00E+00 SK= 0.00E+00
     1610 T=  4192. E= -.27172799E+05 F= -.30995444E+05 EK= 0.38226E+04 SP= 0.00E+00 SK= 0.00E+00
     1620 T=  4188. E= -.27172784E+05 F= -.30991847E+05 EK= 0.38191E+04 SP= 0.00E+00 SK= 0.00E+00
     1630 T=  4212. E= -.27172803E+05 F= -.31013836E+05 EK= 0.38410E+04 SP= 0.00E+00 SK= 0.00E+00
     1640 T=  4214. E= -.27172838E+05 F= -.31015749E+05 EK= 0.38429E+04 SP= 0.00E+00 SK= 0.00E+00
     1650 T=  4149. E= -.27172721E+05 F= -.30956500E+05 EK= 0.37838E+04 SP= 0.00E+00 SK= 0.00E+00
     1660 T=  4177. E= -.27172717E+05 F= -.30981427E+05 EK= 0.38087E+04 SP= 0.00E+00 SK= 0.00E+00
     1670 T=  4224. E= -.27172808E+05 F= -.31025217E+05 EK= 0.38524E+04 SP= 0.00E+00 SK= 0.00E+00
     1680 T=  4194. E= -.27172726E+05 F= -.30997556E+05 EK= 0.38248E+04 SP= 0.00E+00 SK= 0.00E+00
     1690 T=  4241. E= -.27172850E+05 F= -.31040227E+05 EK= 0.38674E+04 SP= 0.00E+00 SK= 0.00E+00
     1700 T=  4213. E= -.27172796E+05 F= -.31014387E+05 EK= 0.38416E+04 SP= 0.00E+00 SK= 0.00E+00
     1710 T=  4210. E= -.27172782E+05 F= -.31012042E+05 EK= 0.38393E+04 SP= 0.00E+00 SK= 0.00E+00
     1720 T=  4225. E= -.27172811E+05 F= -.31025894E+05 EK= 0.38531E+04 SP= 0.00E+00 SK= 0.00E+00
     1730 T=  4193. E= -.27172751E+05 F= -.30996731E+05 EK= 0.38240E+04 SP= 0.00E+00 SK= 0.00E+00
     1740 T=  4180. E= -.27172742E+05 F= -.30984912E+05 EK= 0.38122E+04 SP= 0.00E+00 SK= 0.00E+00
     1750 T=  4170. E= -.27172679E+05 F= -.30975147E+05 EK= 0.38025E+04 SP= 0.00E+00 SK= 0.00E+00
     1760 T=  4169. E= -.27172730E+05 F= -.30974919E+05 EK= 0.38022E+04 SP= 0.00E+00 SK= 0.00E+00
     1770 T=  4199. E= -.27172787E+05 F= -.31001860E+05 EK= 0.38291E+04 SP= 0.00E+00 SK= 0.00E+00
     1780 T=  4196. E= -.27172698E+05 F= -.30999039E+05 EK= 0.38263E+04 SP= 0.00E+00 SK= 0.00E+00
     1790 T=  4216. E= -.27172896E+05 F= -.31017443E+05 EK= 0.38445E+04 SP= 0.00E+00 SK= 0.00E+00
     1800 T=  4161. E= -.27172738E+05 F= -.30967603E+05 EK= 0.37949E+04 SP= 0.00E+00 SK= 0.00E+00
     1810 T=  4203. E= -.27172865E+05 F= -.31006044E+05 EK= 0.38332E+04 SP= 0.00E+00 SK= 0.00E+00
     1820 T=  4191. E= -.27172807E+05 F= -.30994508E+05 EK= 0.38217E+04 SP= 0.00E+00 SK= 0.00E+00
     1830 T=  4144. E= -.27172757E+05 F= -.30951814E+05 EK= 0.37791E+04 SP= 0.00E+00 SK= 0.00E+00
     1840 T=  4184. E= -.27172835E+05 F= -.30988791E+05 EK= 0.38160E+04 SP= 0.00E+00 SK= 0.00E+00
     1850 T=  4219. E= -.27172875E+05 F= -.31020408E+05 EK= 0.38475E+04 SP= 0.00E+00 SK= 0.00E+00
     1860 T=  4191. E= -.27172824E+05 F= -.30994909E+05 EK= 0.38221E+04 SP= 0.00E+00 SK= 0.00E+00
     1870 T=  4183. E= -.27172890E+05 F= -.30987504E+05 EK= 0.38146E+04 SP= 0.00E+00 SK= 0.00E+00
     1880 T=  4140. E= -.27172739E+05 F= -.30947881E+05 EK= 0.37751E+04 SP= 0.00E+00 SK= 0.00E+00
     1890 T=  4148. E= -.27172797E+05 F= -.30955429E+05 EK= 0.37826E+04 SP= 0.00E+00 SK= 0.00E+00
     1900 T=  4168. E= -.27172876E+05 F= -.30973460E+05 EK= 0.38006E+04 SP= 0.00E+00 SK= 0.00E+00
     1910 T=  4171. E= -.27172867E+05 F= -.30976360E+05 EK= 0.38035E+04 SP= 0.00E+00 SK= 0.00E+00
     1920 T=  4171. E= -.27172998E+05 F= -.30976580E+05 EK= 0.38036E+04 SP= 0.00E+00 SK= 0.00E+00
     1930 T=  4122. E= -.27172899E+05 F= -.30931453E+05 EK= 0.37586E+04 SP= 0.00E+00 SK= 0.00E+00
     1940 T=  4162. E= -.27172929E+05 F= -.30968135E+05 EK= 0.37952E+04 SP= 0.00E+00 SK= 0.00E+00
     1950 T=  4200. E= -.27172992E+05 F= -.31003468E+05 EK= 0.38305E+04 SP= 0.00E+00 SK= 0.00E+00
     1960 T=  4139. E= -.27172851E+05 F= -.30946927E+05 EK= 0.37741E+04 SP= 0.00E+00 SK= 0.00E+00
     1970 T=  4126. E= -.27172953E+05 F= -.30935424E+05 EK= 0.37625E+04 SP= 0.00E+00 SK= 0.00E+00
     1980 T=  4119. E= -.27172945E+05 F= -.30929230E+05 EK= 0.37563E+04 SP= 0.00E+00 SK= 0.00E+00
     1990 T=  4120. E= -.27172961E+05 F= -.30930142E+05 EK= 0.37572E+04 SP= 0.00E+00 SK= 0.00E+00
At line 1940 of file md.f90
Fortran runtime error: Unit number is negative and unit was not already opened with OPEN(NEWUNIT=...)

Error termination. Backtrace:
At line 1940 of file md.f90
Fortran runtime error: Unit number is negative and unit was not already opened with OPEN(NEWUNIT=...)

Error termination. Backtrace:
At line 1940 of file md.f90
Fortran runtime error: Unit number is negative and unit was not already opened with OPEN(NEWUNIT=...)

Error termination. Backtrace:
At line 1940 of file md.f90
Fortran runtime error: Unit number is negative and unit was not already opened with OPEN(NEWUNIT=...)

Error termination. Backtrace:
At line 1940 of file md.f90
Fortran runtime error: Unit number is negative and unit was not already opened with OPEN(NEWUNIT=...)

Error termination. Backtrace:
     2000 T=  4160. E= -.27172961E+05 F= -.30966465E+05 EK= 0.37935E+04 SP= 0.00E+00 SK= 0.00E+00
Rc and Rl:   5.500000  7.321000

Average number of steps between two list updates:  18.52
Average number of atoms in the shell:     0.01
#0  0x7f8b97143d11 in ???
#1  0x7f8b97144859 in ???
#2  0x7f8b9714553f in ???
#3  0x5606ed7a90bc in ???
#4  0x5606ed7a492e in ???
#5  0x7f8b96dda082 in __libc_start_main
	at ../csu/libc-start.c:308
#6  0x5606ed7a496d in ???
#7  0xffffffffffffffff in ???
#0  0x7f47582fad11 in ???
#1  0x7f47582fb859 in ???
#2  0x7f47582fc53f in ???
#3  0x555d451f60bc in ???
#4  0x555d451f192e in ???
#5  0x7f4757f91082 in __libc_start_main
	at ../csu/libc-start.c:308
#6  0x555d451f196d in ???
#7  0xffffffffffffffff in ???
#0  0x7f8b37ccfd11 in ???
#1  0x7f8b37cd0859 in ???
#2  0x7f8b37cd153f in ???
#3  0x5636d846d0bc in ???
#4  0x5636d846892e in ???
#5  0x7f8b37966082 in __libc_start_main
	at ../csu/libc-start.c:308
#6  0x5636d846896d in ???
#7  0xffffffffffffffff in ???
#0  0x7f8aba0fbd11 in ???
#1  0x7f8aba0fc859 in ???
#2  0x7f8aba0fd53f in ???
#3  0x55b5f00a40bc in ???
#4  0x55b5f009f92e in ???
#5  0x7f8ab9d92082 in __libc_start_main
	at ../csu/libc-start.c:308
#6  0x55b5f009f96d in ???
#7  0xffffffffffffffff in ???
