   4   4   0   0
  0.2228503E+02  0.7091058E-09  0.3545529E-09  0.3545529E-09  0.2000000E-14
   920.00000000000000     
  CAR 
 Al, 4 atoms                             
     12.23360166     -3.57106558  301      4.94496694      1.00000000
     -3.571  0.0000E+00  0.0000E+00
     -3.518  0.0000E+00  0.0000E+00
     -3.466  0.0000E+00  0.0000E+00
     -3.413  0.1235E-01  0.6505E-03
     -3.360  0.1164E-01  0.1264E-02
     -3.308  0.2261E-01  0.2455E-02
     -3.255  0.4387E-01  0.4766E-02
     -3.202  0.8498E-01  0.9243E-02
     -3.150  0.1641E+00  0.1789E-01
     -3.097  0.3149E+00  0.3447E-01
     -3.044  0.5971E+00  0.6593E-01
     -2.992  0.1108E+01  0.1243E+00
     -2.939  0.1972E+01  0.2282E+00
     -2.886  0.3268E+01  0.4004E+00
     -2.834  0.4824E+01  0.6545E+00
     -2.781  0.6025E+01  0.9719E+00
     -2.728  0.6135E+01  0.1295E+01
     -2.675  0.5075E+01  0.1562E+01
     -2.623  0.3524E+01  0.1748E+01
     -2.570  0.2161E+01  0.1862E+01
     -2.517  0.1225E+01  0.1927E+01
     -2.465  0.6642E+00  0.1962E+01
     -2.412  0.3512E+00  0.1980E+01
     -2.359  0.1833E+00  0.1990E+01
     -2.307  0.9501E-01  0.1995E+01
     -2.254  0.4907E-01  0.1997E+01
     -2.201  0.2530E-01  0.1999E+01
     -2.149  0.1303E-01  0.1999E+01
     -2.096  0.0000E+00  0.2000E+01
     -2.043  0.0000E+00  0.2000E+01
     -1.991  0.0000E+00  0.2000E+01
     -1.938  0.0000E+00  0.2000E+01
     -1.885  0.0000E+00  0.2000E+01
     -1.833  0.0000E+00  0.2000E+01
     -1.780  0.0000E+00  0.2000E+01
     -1.727  0.0000E+00  0.2000E+01
     -1.675  0.0000E+00  0.2000E+01
     -1.622  0.0000E+00  0.2000E+01
     -1.569  0.0000E+00  0.2000E+01
     -1.516  0.5699E-02  0.2000E+01
     -1.464  0.8335E-02  0.2001E+01
     -1.411  0.1323E-01  0.2001E+01
     -1.358  0.2569E-01  0.2003E+01
     -1.306  0.4984E-01  0.2005E+01
     -1.253  0.9649E-01  0.2010E+01
     -1.200  0.1861E+00  0.2020E+01
     -1.148  0.3565E+00  0.2039E+01
     -1.095  0.6736E+00  0.2075E+01
     -1.042  0.1241E+01  0.2140E+01
     -0.990  0.2184E+01  0.2255E+01
     -0.937  0.3549E+01  0.2442E+01
     -0.884  0.5087E+01  0.2710E+01
     -0.832  0.6124E+01  0.3033E+01
     -0.779  0.5998E+01  0.3349E+01
     -0.726  0.4798E+01  0.3601E+01
     -0.674  0.3253E+01  0.3773E+01
     -0.621  0.1964E+01  0.3876E+01
     -0.568  0.1104E+01  0.3934E+01
     -0.515  0.5953E+00  0.3966E+01
     -0.463  0.3140E+00  0.3982E+01
     -0.410  0.1636E+00  0.3991E+01
     -0.357  0.8476E-01  0.3995E+01
     -0.305  0.4376E-01  0.3998E+01
     -0.252  0.2255E-01  0.3999E+01
     -0.199  0.3396E-02  0.4000E+01
     -0.147  0.0000E+00  0.4000E+01
     -0.094  0.0000E+00  0.4000E+01
     -0.041  0.0000E+00  0.4000E+01
      0.011  0.0000E+00  0.4000E+01
      0.064  0.0000E+00  0.4000E+01
      0.117  0.0000E+00  0.4000E+01
      0.169  0.0000E+00  0.4000E+01
      0.222  0.0000E+00  0.4000E+01
      0.275  0.0000E+00  0.4000E+01
      0.327  0.0000E+00  0.4000E+01
      0.380  0.0000E+00  0.4000E+01
      0.433  0.0000E+00  0.4000E+01
      0.485  0.0000E+00  0.4000E+01
      0.538  0.0000E+00  0.4000E+01
      0.591  0.0000E+00  0.4000E+01
      0.644  0.0000E+00  0.4000E+01
      0.696  0.0000E+00  0.4000E+01
      0.749  0.0000E+00  0.4000E+01
      0.802  0.0000E+00  0.4000E+01
      0.854  0.0000E+00  0.4000E+01
      0.907  0.0000E+00  0.4000E+01
      0.960  0.0000E+00  0.4000E+01
      1.012  0.0000E+00  0.4000E+01
      1.065  0.0000E+00  0.4000E+01
      1.118  0.2617E-02  0.4000E+01
      1.170  0.7084E-02  0.4001E+01
      1.223  0.1127E-01  0.4001E+01
      1.276  0.1976E-01  0.4002E+01
      1.328  0.3832E-01  0.4004E+01
      1.381  0.7420E-01  0.4008E+01
      1.434  0.1431E+00  0.4016E+01
      1.486  0.2743E+00  0.4030E+01
      1.539  0.5187E+00  0.4057E+01
      1.592  0.9575E+00  0.4108E+01
      1.644  0.1694E+01  0.4197E+01
      1.697  0.2792E+01  0.4344E+01
      1.750  0.4141E+01  0.4562E+01
      1.803  0.5339E+01  0.4844E+01
      1.855  0.5837E+01  0.5151E+01
      1.908  0.5361E+01  0.5433E+01
      1.961  0.4169E+01  0.5653E+01
      2.013  0.2814E+01  0.5801E+01
      2.066  0.1707E+01  0.5891E+01
      2.119  0.9650E+00  0.5942E+01
      2.171  0.5226E+00  0.5970E+01
      2.224  0.2780E+00  0.5984E+01
      2.277  0.1500E+00  0.5992E+01
      2.329  0.8401E-01  0.5997E+01
      2.382  0.5439E-01  0.6000E+01
      2.435  0.5658E-01  0.6003E+01
      2.487  0.7167E-01  0.6007E+01
      2.540  0.1295E+00  0.6014E+01
      2.593  0.2494E+00  0.6027E+01
      2.645  0.4765E+00  0.6052E+01
      2.698  0.8963E+00  0.6100E+01
      2.751  0.1639E+01  0.6186E+01
      2.803  0.2851E+01  0.6336E+01
      2.856  0.4586E+01  0.6578E+01
      2.909  0.6609E+01  0.6926E+01
      2.962  0.8394E+01  0.7368E+01
      3.014  0.9499E+01  0.7868E+01
      3.067  0.9814E+01  0.8385E+01
      3.120  0.9249E+01  0.8873E+01
      3.172  0.7714E+01  0.9279E+01
      3.225  0.5589E+01  0.9574E+01
      3.278  0.3573E+01  0.9762E+01
      3.330  0.2086E+01  0.9872E+01
      3.383  0.1151E+01  0.9932E+01
      3.436  0.6147E+00  0.9965E+01
      3.488  0.3225E+00  0.9982E+01
      3.541  0.1676E+00  0.9991E+01
      3.594  0.8023E-01  0.9996E+01
      3.646  0.3905E-01  0.9998E+01
      3.699  0.2012E-01  0.9999E+01
      3.752  0.0000E+00  0.1000E+02
      3.804  0.0000E+00  0.1000E+02
      3.857  0.0000E+00  0.1000E+02
      3.910  0.0000E+00  0.1000E+02
      3.962  0.0000E+00  0.1000E+02
      4.015  0.2827E-02  0.1000E+02
      4.068  0.6201E-02  0.1000E+02
      4.121  0.8512E-02  0.1000E+02
      4.173  0.1959E-01  0.1000E+02
      4.226  0.3494E-01  0.1000E+02
      4.279  0.6762E-01  0.1001E+02
      4.331  0.1304E+00  0.1001E+02
      4.384  0.2495E+00  0.1003E+02
      4.437  0.4728E+00  0.1005E+02
      4.489  0.8761E+00  0.1010E+02
      4.542  0.1537E+01  0.1018E+02
      4.595  0.2526E+01  0.1031E+02
      4.647  0.3763E+01  0.1051E+02
      4.700  0.4967E+01  0.1077E+02
      4.753  0.5727E+01  0.1107E+02
      4.805  0.5736E+01  0.1138E+02
      4.858  0.5076E+01  0.1164E+02
      4.911  0.4255E+01  0.1187E+02
      4.963  0.3864E+01  0.1207E+02
      5.016  0.4220E+01  0.1229E+02
      5.069  0.5202E+01  0.1257E+02
      5.122  0.6186E+01  0.1289E+02
      5.174  0.6345E+01  0.1323E+02
      5.227  0.5394E+01  0.1351E+02
      5.280  0.3855E+01  0.1372E+02
      5.332  0.2418E+01  0.1384E+02
      5.385  0.1392E+01  0.1392E+02
      5.438  0.7686E+00  0.1396E+02
      5.490  0.4217E+00  0.1398E+02
      5.543  0.2517E+00  0.1399E+02
      5.596  0.1909E+00  0.1400E+02
      5.648  0.2149E+00  0.1401E+02
      5.701  0.3332E+00  0.1403E+02
      5.754  0.5874E+00  0.1406E+02
      5.806  0.1062E+01  0.1412E+02
      5.859  0.1876E+01  0.1422E+02
      5.912  0.3078E+01  0.1438E+02
      5.964  0.4509E+01  0.1462E+02
      6.017  0.5668E+01  0.1492E+02
      6.070  0.5951E+01  0.1523E+02
      6.122  0.5191E+01  0.1550E+02
      6.175  0.3824E+01  0.1571E+02
      6.228  0.2462E+01  0.1583E+02
      6.281  0.1443E+01  0.1591E+02
      6.333  0.7982E+00  0.1595E+02
      6.386  0.4269E+00  0.1598E+02
      6.439  0.2241E+00  0.1599E+02
      6.491  0.1165E+00  0.1599E+02
      6.544  0.6029E-01  0.1600E+02
      6.597  0.3111E-01  0.1600E+02
      6.649  0.1392E-01  0.1600E+02
      6.702  0.5863E-02  0.1600E+02
      6.755  0.7001E-02  0.1600E+02
      6.807  0.1168E-01  0.1600E+02
      6.860  0.2467E-01  0.1600E+02
      6.913  0.4759E-01  0.1601E+02
      6.965  0.8974E-01  0.1601E+02
      7.018  0.1713E+00  0.1602E+02
      7.071  0.3216E+00  0.1604E+02
      7.123  0.5938E+00  0.1607E+02
      7.176  0.1022E+01  0.1612E+02
      7.229  0.1637E+01  0.1621E+02
      7.281  0.2358E+01  0.1633E+02
      7.334  0.3054E+01  0.1649E+02
      7.387  0.3669E+01  0.1669E+02
      7.440  0.4232E+01  0.1691E+02
      7.492  0.4737E+01  0.1716E+02
      7.545  0.5121E+01  0.1743E+02
      7.598  0.5347E+01  0.1771E+02
      7.650  0.5528E+01  0.1800E+02
      7.703  0.5876E+01  0.1831E+02
      7.756  0.6349E+01  0.1864E+02
      7.808  0.6507E+01  0.1899E+02
      7.861  0.5969E+01  0.1930E+02
      7.914  0.4817E+01  0.1956E+02
      7.966  0.3434E+01  0.1974E+02
      8.019  0.2202E+01  0.1985E+02
      8.072  0.1300E+01  0.1992E+02
      8.124  0.7418E+00  0.1996E+02
      8.177  0.4345E+00  0.1998E+02
      8.230  0.3021E+00  0.2000E+02
      8.282  0.3043E+00  0.2002E+02
      8.335  0.4370E+00  0.2004E+02
      8.388  0.7454E+00  0.2008E+02
      8.440  0.1307E+01  0.2015E+02
      8.493  0.2227E+01  0.2027E+02
      8.546  0.3482E+01  0.2045E+02
      8.599  0.4821E+01  0.2070E+02
      8.651  0.5730E+01  0.2100E+02
      8.704  0.5739E+01  0.2131E+02
      8.757  0.4821E+01  0.2156E+02
      8.809  0.3448E+01  0.2174E+02
      8.862  0.2173E+01  0.2186E+02
      8.915  0.1256E+01  0.2192E+02
      8.967  0.6886E+00  0.2196E+02
      9.020  0.3665E+00  0.2198E+02
      9.073  0.1920E+00  0.2199E+02
      9.125  0.9969E-01  0.2199E+02
      9.178  0.5154E-01  0.2200E+02
      9.231  0.2388E-01  0.2200E+02
      9.283  0.9752E-02  0.2200E+02
      9.336  0.0000E+00  0.2200E+02
      9.389  0.0000E+00  0.2200E+02
      9.441  0.0000E+00  0.2200E+02
      9.494  0.0000E+00  0.2200E+02
      9.547  0.0000E+00  0.2200E+02
      9.599  0.2074E-02  0.2200E+02
      9.652  0.3803E-02  0.2200E+02
      9.705  0.5541E-02  0.2200E+02
      9.758  0.1294E-01  0.2200E+02
      9.810  0.2293E-01  0.2200E+02
      9.863  0.4442E-01  0.2200E+02
      9.916  0.8576E-01  0.2201E+02
      9.968  0.1646E+00  0.2202E+02
     10.021  0.3122E+00  0.2203E+02
     10.074  0.5794E+00  0.2206E+02
     10.126  0.1034E+01  0.2212E+02
     10.179  0.1730E+01  0.2221E+02
     10.232  0.2619E+01  0.2235E+02
     10.284  0.3481E+01  0.2253E+02
     10.337  0.3998E+01  0.2274E+02
     10.390  0.3985E+01  0.2295E+02
     10.442  0.3477E+01  0.2314E+02
     10.495  0.2665E+01  0.2328E+02
     10.548  0.1804E+01  0.2337E+02
     10.600  0.1103E+01  0.2343E+02
     10.653  0.6267E+00  0.2346E+02
     10.706  0.3406E+00  0.2348E+02
     10.758  0.1822E+00  0.2349E+02
     10.811  0.9593E-01  0.2349E+02
     10.864  0.5208E-01  0.2350E+02
     10.917  0.2894E-01  0.2350E+02
     10.969  0.2091E-01  0.2350E+02
     11.022  0.2779E-01  0.2350E+02
     11.075  0.4473E-01  0.2350E+02
     11.127  0.8574E-01  0.2351E+02
     11.180  0.1622E+00  0.2352E+02
     11.233  0.2997E+00  0.2353E+02
     11.285  0.5297E+00  0.2356E+02
     11.338  0.8671E+00  0.2361E+02
     11.391  0.1255E+01  0.2367E+02
     11.443  0.1529E+01  0.2375E+02
     11.496  0.1513E+01  0.2383E+02
     11.549  0.1220E+01  0.2390E+02
     11.601  0.8308E+00  0.2394E+02
     11.654  0.5029E+00  0.2397E+02
     11.707  0.2830E+00  0.2398E+02
     11.759  0.1527E+00  0.2399E+02
     11.812  0.8059E-01  0.2400E+02
     11.865  0.4201E-01  0.2400E+02
     11.918  0.2176E-01  0.2400E+02
     11.970  0.1124E-01  0.2400E+02
     12.023  0.5791E-02  0.2400E+02
     12.076  0.0000E+00  0.2400E+02
     12.128  0.0000E+00  0.2400E+02
     12.181  0.0000E+00  0.2400E+02
     12.234  0.0000E+00  0.2400E+02
     11.26775459     -3.47680983  301      4.88667019      1.00000000
     -3.477  0.0000E+00  0.0000E+00
     -3.428  0.0000E+00  0.0000E+00
     -3.379  0.0000E+00  0.0000E+00
     -3.329  0.1165E-01  0.5726E-03
     -3.280  0.1000E-01  0.1064E-02
     -3.231  0.1858E-01  0.1977E-02
     -3.182  0.3449E-01  0.3672E-02
     -3.133  0.6396E-01  0.6816E-02
     -3.084  0.1184E+00  0.1263E-01
     -3.034  0.2182E+00  0.2336E-01
     -2.985  0.3994E+00  0.4298E-01
     -2.936  0.7217E+00  0.7845E-01
     -2.887  0.1274E+01  0.1411E+00
     -2.838  0.2161E+01  0.2473E+00
     -2.789  0.3423E+01  0.4155E+00
     -2.740  0.4881E+01  0.6554E+00
     -2.690  0.6008E+01  0.9507E+00
     -2.641  0.6189E+01  0.1255E+01
     -2.592  0.5309E+01  0.1516E+01
     -2.543  0.3884E+01  0.1707E+01
     -2.494  0.2524E+01  0.1831E+01
     -2.445  0.1516E+01  0.1905E+01
     -2.396  0.8675E+00  0.1948E+01
     -2.346  0.4830E+00  0.1972E+01
     -2.297  0.2647E+00  0.1985E+01
     -2.248  0.1439E+00  0.1992E+01
     -2.199  0.7782E-01  0.1996E+01
     -2.150  0.4199E-01  0.1998E+01
     -2.101  0.2262E-01  0.1999E+01
     -2.052  0.1218E-01  0.1999E+01
     -2.002  0.0000E+00  0.2000E+01
     -1.953  0.0000E+00  0.2000E+01
     -1.904  0.0000E+00  0.2000E+01
     -1.855  0.0000E+00  0.2000E+01
     -1.806  0.0000E+00  0.2000E+01
     -1.757  0.0000E+00  0.2000E+01
     -1.707  0.0000E+00  0.2000E+01
     -1.658  0.0000E+00  0.2000E+01
     -1.609  0.0000E+00  0.2000E+01
     -1.560  0.8223E-02  0.2000E+01
     -1.511  0.7060E-02  0.2001E+01
     -1.462  0.1312E-01  0.2001E+01
     -1.413  0.2436E-01  0.2003E+01
     -1.363  0.4521E-01  0.2005E+01
     -1.314  0.8376E-01  0.2009E+01
     -1.265  0.1548E+00  0.2017E+01
     -1.216  0.2846E+00  0.2031E+01
     -1.167  0.5184E+00  0.2056E+01
     -1.118  0.9287E+00  0.2102E+01
     -1.069  0.1615E+01  0.2181E+01
     -1.019  0.2668E+01  0.2312E+01
     -0.970  0.4055E+01  0.2511E+01
     -0.921  0.5447E+01  0.2779E+01
     -0.872  0.6219E+01  0.3085E+01
     -0.823  0.5911E+01  0.3375E+01
     -0.774  0.4715E+01  0.3607E+01
     -0.724  0.3263E+01  0.3767E+01
     -0.675  0.2041E+01  0.3868E+01
     -0.626  0.1198E+01  0.3927E+01
     -0.577  0.6761E+00  0.3960E+01
     -0.528  0.3735E+00  0.3978E+01
     -0.479  0.2039E+00  0.3988E+01
     -0.430  0.1105E+00  0.3994E+01
     -0.380  0.5972E-01  0.3997E+01
     -0.331  0.3220E-01  0.3998E+01
     -0.282  0.1734E-01  0.3999E+01
     -0.233  0.0000E+00  0.4000E+01
     -0.184  0.0000E+00  0.4000E+01
     -0.135  0.0000E+00  0.4000E+01
     -0.086  0.0000E+00  0.4000E+01
     -0.036  0.0000E+00  0.4000E+01
      0.013  0.0000E+00  0.4000E+01
      0.062  0.0000E+00  0.4000E+01
      0.111  0.0000E+00  0.4000E+01
      0.160  0.0000E+00  0.4000E+01
      0.209  0.0000E+00  0.4000E+01
      0.258  0.0000E+00  0.4000E+01
      0.308  0.0000E+00  0.4000E+01
      0.357  0.0000E+00  0.4000E+01
      0.406  0.0000E+00  0.4000E+01
      0.455  0.0000E+00  0.4000E+01
      0.504  0.0000E+00  0.4000E+01
      0.553  0.0000E+00  0.4000E+01
      0.603  0.0000E+00  0.4000E+01
      0.652  0.0000E+00  0.4000E+01
      0.701  0.0000E+00  0.4000E+01
      0.750  0.0000E+00  0.4000E+01
      0.799  0.0000E+00  0.4000E+01
      0.848  0.0000E+00  0.4000E+01
      0.897  0.0000E+00  0.4000E+01
      0.947  0.0000E+00  0.4000E+01
      0.996  0.0000E+00  0.4000E+01
      1.045  0.0000E+00  0.4000E+01
      1.094  0.0000E+00  0.4000E+01
      1.143  0.2722E-02  0.4000E+01
      1.192  0.1075E-01  0.4001E+01
      1.241  0.1157E-01  0.4001E+01
      1.291  0.2148E-01  0.4002E+01
      1.340  0.3987E-01  0.4004E+01
      1.389  0.7388E-01  0.4008E+01
      1.438  0.1365E+00  0.4015E+01
      1.487  0.2512E+00  0.4027E+01
      1.536  0.4579E+00  0.4049E+01
      1.585  0.8215E+00  0.4090E+01
      1.635  0.1433E+01  0.4160E+01
      1.684  0.2381E+01  0.4277E+01
      1.733  0.3665E+01  0.4457E+01
      1.782  0.5040E+01  0.4705E+01
      1.831  0.5979E+01  0.4999E+01
      1.880  0.5984E+01  0.5293E+01
      1.930  0.5052E+01  0.5541E+01
      1.979  0.3676E+01  0.5722E+01
      2.028  0.2388E+01  0.5839E+01
      2.077  0.1436E+01  0.5910E+01
      2.126  0.8235E+00  0.5950E+01
      2.175  0.4589E+00  0.5973E+01
      2.224  0.2517E+00  0.5985E+01
      2.274  0.1368E+00  0.5992E+01
      2.323  0.7804E-01  0.5996E+01
      2.372  0.4806E-01  0.5998E+01
      2.421  0.3193E-01  0.6000E+01
      2.470  0.2353E-01  0.6002E+01
      2.519  0.4008E-01  0.6004E+01
      2.568  0.7553E-01  0.6008E+01
      2.618  0.1344E+00  0.6014E+01
      2.667  0.2477E+00  0.6027E+01
      2.716  0.4532E+00  0.6049E+01
      2.765  0.8188E+00  0.6089E+01
      2.814  0.1446E+01  0.6160E+01
      2.863  0.2454E+01  0.6281E+01
      2.913  0.3910E+01  0.6473E+01
      2.962  0.5680E+01  0.6752E+01
      3.011  0.7350E+01  0.7113E+01
      3.060  0.8462E+01  0.7529E+01
      3.109  0.8933E+01  0.7968E+01
      3.158  0.8985E+01  0.8410E+01
      3.207  0.8622E+01  0.8834E+01
      3.257  0.7594E+01  0.9207E+01
      3.306  0.5940E+01  0.9499E+01
      3.355  0.4124E+01  0.9701E+01
      3.404  0.2603E+01  0.9829E+01
      3.453  0.1538E+01  0.9905E+01
      3.502  0.8730E+00  0.9948E+01
      3.551  0.4837E+00  0.9972E+01
      3.601  0.2645E+00  0.9985E+01
      3.650  0.1388E+00  0.9992E+01
      3.699  0.7082E-01  0.9996E+01
      3.748  0.3821E-01  0.9998E+01
      3.797  0.2058E-01  0.9999E+01
      3.846  0.6556E-02  0.1000E+02
      3.895  0.0000E+00  0.1000E+02
      3.945  0.0000E+00  0.1000E+02
      3.994  0.2685E-02  0.1000E+02
      4.043  0.4846E-02  0.1000E+02
      4.092  0.1207E-01  0.1000E+02
      4.141  0.1681E-01  0.1000E+02
      4.190  0.3120E-01  0.1000E+02
      4.240  0.5784E-01  0.1001E+02
      4.289  0.1070E+00  0.1001E+02
      4.338  0.1969E+00  0.1002E+02
      4.387  0.3652E+00  0.1004E+02
      4.436  0.6575E+00  0.1007E+02
      4.485  0.1149E+01  0.1013E+02
      4.534  0.1933E+01  0.1022E+02
      4.584  0.3044E+01  0.1037E+02
      4.633  0.4364E+01  0.1059E+02
      4.682  0.5555E+01  0.1086E+02
      4.731  0.6187E+01  0.1116E+02
      4.780  0.6050E+01  0.1146E+02
      4.829  0.5395E+01  0.1173E+02
      4.878  0.4789E+01  0.1196E+02
      4.928  0.4711E+01  0.1219E+02
      4.977  0.5250E+01  0.1245E+02
      5.026  0.6039E+01  0.1275E+02
      5.075  0.6435E+01  0.1306E+02
      5.124  0.5977E+01  0.1336E+02
      5.173  0.4776E+01  0.1359E+02
      5.222  0.3341E+01  0.1376E+02
      5.272  0.2119E+01  0.1386E+02
      5.321  0.1253E+01  0.1392E+02
      5.370  0.7120E+00  0.1396E+02
      5.419  0.4069E+00  0.1398E+02
      5.468  0.2412E+00  0.1399E+02
      5.517  0.1683E+00  0.1400E+02
      5.567  0.1601E+00  0.1401E+02
      5.616  0.2135E+00  0.1402E+02
      5.665  0.3435E+00  0.1403E+02
      5.714  0.5929E+00  0.1406E+02
      5.763  0.1030E+01  0.1412E+02
      5.812  0.1720E+01  0.1420E+02
      5.861  0.2673E+01  0.1433E+02
      5.911  0.3753E+01  0.1452E+02
      5.960  0.4677E+01  0.1475E+02
      6.009  0.5183E+01  0.1500E+02
      6.058  0.5183E+01  0.1525E+02
      6.107  0.4677E+01  0.1548E+02
      6.156  0.3754E+01  0.1567E+02
      6.205  0.2673E+01  0.1580E+02
      6.255  0.1720E+01  0.1588E+02
      6.304  0.1030E+01  0.1594E+02
      6.353  0.5895E+00  0.1596E+02
      6.402  0.3282E+00  0.1598E+02
      6.451  0.1799E+00  0.1599E+02
      6.500  0.9776E-01  0.1599E+02
      6.549  0.5288E-01  0.1600E+02
      6.599  0.2420E-01  0.1600E+02
      6.648  0.1507E-01  0.1600E+02
      6.697  0.8768E-02  0.1600E+02
      6.746  0.5152E-02  0.1600E+02
      6.795  0.7661E-02  0.1600E+02
      6.844  0.1730E-01  0.1600E+02
      6.894  0.3228E-01  0.1600E+02
      6.943  0.5649E-01  0.1601E+02
      6.992  0.1042E+00  0.1601E+02
      7.041  0.1908E+00  0.1602E+02
      7.090  0.3501E+00  0.1604E+02
      7.139  0.6158E+00  0.1607E+02
      7.188  0.1055E+01  0.1612E+02
      7.238  0.1708E+01  0.1620E+02
      7.287  0.2557E+01  0.1633E+02
      7.336  0.3503E+01  0.1650E+02
      7.385  0.4398E+01  0.1672E+02
      7.434  0.5105E+01  0.1697E+02
      7.483  0.5485E+01  0.1724E+02
      7.532  0.5447E+01  0.1751E+02
      7.582  0.5100E+01  0.1776E+02
      7.631  0.4771E+01  0.1799E+02
      7.680  0.4771E+01  0.1823E+02
      7.729  0.5113E+01  0.1848E+02
      7.778  0.5505E+01  0.1875E+02
      7.827  0.5632E+01  0.1902E+02
      7.877  0.5349E+01  0.1929E+02
      7.926  0.4639E+01  0.1952E+02
      7.975  0.3607E+01  0.1969E+02
      8.024  0.2515E+01  0.1982E+02
      8.073  0.1602E+01  0.1990E+02
      8.122  0.9533E+00  0.1994E+02
      8.171  0.5529E+00  0.1997E+02
      8.221  0.3308E+00  0.1999E+02
      8.270  0.2252E+00  0.2000E+02
      8.319  0.2041E+00  0.2001E+02
      8.368  0.2611E+00  0.2002E+02
      8.417  0.4120E+00  0.2004E+02
      8.466  0.7163E+00  0.2008E+02
      8.515  0.1246E+01  0.2014E+02
      8.565  0.2102E+01  0.2024E+02
      8.614  0.3324E+01  0.2040E+02
      8.663  0.4740E+01  0.2064E+02
      8.712  0.5868E+01  0.2093E+02
      8.761  0.6129E+01  0.2123E+02
      8.810  0.5366E+01  0.2149E+02
      8.859  0.4013E+01  0.2169E+02
      8.909  0.2655E+01  0.2182E+02
      8.958  0.1615E+01  0.2190E+02
      9.007  0.9320E+00  0.2194E+02
      9.056  0.5213E+00  0.2197E+02
      9.105  0.2865E+00  0.2198E+02
      9.154  0.1559E+00  0.2199E+02
      9.204  0.8440E-01  0.2200E+02
      9.253  0.4556E-01  0.2200E+02
      9.302  0.2455E-01  0.2200E+02
      9.351  0.8116E-02  0.2200E+02
      9.400  0.0000E+00  0.2200E+02
      9.449  0.0000E+00  0.2200E+02
      9.498  0.0000E+00  0.2200E+02
      9.548  0.0000E+00  0.2200E+02
      9.597  0.0000E+00  0.2200E+02
      9.646  0.2812E-02  0.2200E+02
      9.695  0.4488E-02  0.2200E+02
      9.744  0.8297E-02  0.2200E+02
      9.793  0.1525E-01  0.2200E+02
      9.842  0.2644E-01  0.2200E+02
      9.892  0.4899E-01  0.2201E+02
      9.941  0.9055E-01  0.2201E+02
      9.990  0.1666E+00  0.2202E+02
     10.039  0.3037E+00  0.2203E+02
     10.088  0.5452E+00  0.2206E+02
     10.137  0.9524E+00  0.2211E+02
     10.186  0.1591E+01  0.2218E+02
     10.236  0.2486E+01  0.2231E+02
     10.285  0.3547E+01  0.2248E+02
     10.334  0.4551E+01  0.2270E+02
     10.383  0.5222E+01  0.2296E+02
     10.432  0.5341E+01  0.2322E+02
     10.481  0.4847E+01  0.2346E+02
     10.531  0.3891E+01  0.2365E+02
     10.580  0.2780E+01  0.2379E+02
     10.629  0.1800E+01  0.2388E+02
     10.678  0.1085E+01  0.2393E+02
     10.727  0.6231E+00  0.2396E+02
     10.776  0.3479E+00  0.2398E+02
     10.825  0.1910E+00  0.2399E+02
     10.875  0.1039E+00  0.2399E+02
     10.924  0.5623E-01  0.2400E+02
     10.973  0.2865E-01  0.2400E+02
     11.022  0.1314E-01  0.2400E+02
     11.071  0.4729E-02  0.2400E+02
     11.120  0.0000E+00  0.2400E+02
     11.169  0.0000E+00  0.2400E+02
     11.219  0.0000E+00  0.2400E+02
     11.268  0.0000E+00  0.2400E+02
     11.21919903     -3.48659352  301      4.87099236      1.00000000
     -3.487  0.0000E+00  0.0000E+00
     -3.438  0.0000E+00  0.0000E+00
     -3.389  0.0000E+00  0.0000E+00
     -3.340  0.1168E-01  0.5726E-03
     -3.291  0.9991E-02  0.1062E-02
     -3.241  0.1853E-01  0.1971E-02
     -3.192  0.3434E-01  0.3654E-02
     -3.143  0.6358E-01  0.6771E-02
     -3.094  0.1175E+00  0.1253E-01
     -3.045  0.2162E+00  0.2313E-01
     -2.996  0.3952E+00  0.4250E-01
     -2.947  0.7133E+00  0.7746E-01
     -2.898  0.1258E+01  0.1391E+00
     -2.849  0.2133E+01  0.2437E+00
     -2.800  0.3384E+01  0.4096E+00
     -2.751  0.4838E+01  0.6468E+00
     -2.702  0.5984E+01  0.9401E+00
     -2.653  0.6203E+01  0.1244E+01
     -2.604  0.5357E+01  0.1507E+01
     -2.555  0.3944E+01  0.1700E+01
     -2.506  0.2576E+01  0.1826E+01
     -2.457  0.1554E+01  0.1903E+01
     -2.408  0.8921E+00  0.1946E+01
     -2.359  0.4979E+00  0.1971E+01
     -2.310  0.2735E+00  0.1984E+01
     -2.261  0.1489E+00  0.1991E+01
     -2.212  0.8070E-01  0.1995E+01
     -2.163  0.4362E-01  0.1997E+01
     -2.114  0.2354E-01  0.1999E+01
     -2.065  0.1270E-01  0.1999E+01
     -2.016  0.0000E+00  0.2000E+01
     -1.967  0.0000E+00  0.2000E+01
     -1.918  0.0000E+00  0.2000E+01
     -1.869  0.0000E+00  0.2000E+01
     -1.820  0.0000E+00  0.2000E+01
     -1.771  0.0000E+00  0.2000E+01
     -1.722  0.0000E+00  0.2000E+01
     -1.673  0.0000E+00  0.2000E+01
     -1.624  0.0000E+00  0.2000E+01
     -1.575  0.0000E+00  0.2000E+01
     -1.526  0.1260E-01  0.2001E+01
     -1.477  0.1078E-01  0.2001E+01
     -1.428  0.1999E-01  0.2002E+01
     -1.379  0.3704E-01  0.2004E+01
     -1.330  0.6856E-01  0.2007E+01
     -1.281  0.1266E+00  0.2014E+01
     -1.232  0.2329E+00  0.2025E+01
     -1.183  0.4252E+00  0.2046E+01
     -1.134  0.7657E+00  0.2083E+01
     -1.085  0.1346E+01  0.2149E+01
     -1.036  0.2266E+01  0.2260E+01
     -0.987  0.3556E+01  0.2435E+01
     -0.938  0.5005E+01  0.2680E+01
     -0.889  0.6065E+01  0.2977E+01
     -0.840  0.6148E+01  0.3279E+01
     -0.791  0.5201E+01  0.3534E+01
     -0.742  0.3768E+01  0.3718E+01
     -0.692  0.2434E+01  0.3838E+01
     -0.643  0.1457E+01  0.3909E+01
     -0.594  0.8335E+00  0.3950E+01
     -0.545  0.4641E+00  0.3973E+01
     -0.496  0.2546E+00  0.3985E+01
     -0.447  0.1385E+00  0.3992E+01
     -0.398  0.7505E-01  0.3996E+01
     -0.349  0.4055E-01  0.3998E+01
     -0.300  0.2189E-01  0.3999E+01
     -0.251  0.6152E-02  0.4000E+01
     -0.202  0.0000E+00  0.4000E+01
     -0.153  0.0000E+00  0.4000E+01
     -0.104  0.0000E+00  0.4000E+01
     -0.055  0.0000E+00  0.4000E+01
     -0.006  0.0000E+00  0.4000E+01
      0.043  0.0000E+00  0.4000E+01
      0.092  0.0000E+00  0.4000E+01
      0.141  0.0000E+00  0.4000E+01
      0.190  0.0000E+00  0.4000E+01
      0.239  0.0000E+00  0.4000E+01
      0.288  0.0000E+00  0.4000E+01
      0.337  0.0000E+00  0.4000E+01
      0.386  0.0000E+00  0.4000E+01
      0.435  0.0000E+00  0.4000E+01
      0.484  0.0000E+00  0.4000E+01
      0.533  0.0000E+00  0.4000E+01
      0.582  0.0000E+00  0.4000E+01
      0.631  0.0000E+00  0.4000E+01
      0.680  0.0000E+00  0.4000E+01
      0.729  0.0000E+00  0.4000E+01
      0.778  0.0000E+00  0.4000E+01
      0.827  0.0000E+00  0.4000E+01
      0.876  0.0000E+00  0.4000E+01
      0.925  0.0000E+00  0.4000E+01
      0.974  0.0000E+00  0.4000E+01
      1.023  0.0000E+00  0.4000E+01
      1.072  0.0000E+00  0.4000E+01
      1.121  0.0000E+00  0.4000E+01
      1.170  0.8183E-02  0.4000E+01
      1.219  0.1038E-01  0.4001E+01
      1.268  0.1587E-01  0.4002E+01
      1.317  0.2942E-01  0.4003E+01
      1.366  0.5449E-01  0.4006E+01
      1.415  0.1007E+00  0.4011E+01
      1.464  0.1855E+00  0.4020E+01
      1.513  0.3397E+00  0.4036E+01
      1.562  0.6148E+00  0.4067E+01
      1.611  0.1090E+01  0.4120E+01
      1.660  0.1866E+01  0.4212E+01
      1.709  0.3007E+01  0.4359E+01
      1.758  0.4414E+01  0.4575E+01
      1.807  0.5675E+01  0.4853E+01
      1.857  0.6186E+01  0.5157E+01
      1.906  0.5643E+01  0.5433E+01
      1.955  0.4366E+01  0.5647E+01
      2.004  0.2962E+01  0.5793E+01
      2.053  0.1833E+01  0.5882E+01
      2.102  0.1069E+01  0.5935E+01
      2.151  0.6022E+00  0.5964E+01
      2.200  0.3325E+00  0.5981E+01
      2.249  0.1816E+00  0.5989E+01
      2.298  0.9855E-01  0.5994E+01
      2.347  0.6203E-01  0.5997E+01
      2.396  0.3959E-01  0.5999E+01
      2.445  0.2946E-01  0.6001E+01
      2.494  0.3094E-01  0.6003E+01
      2.543  0.6325E-01  0.6006E+01
      2.592  0.1177E+00  0.6012E+01
      2.641  0.2102E+00  0.6022E+01
      2.690  0.3848E+00  0.6041E+01
      2.739  0.6968E+00  0.6075E+01
      2.788  0.1237E+01  0.6136E+01
      2.837  0.2121E+01  0.6240E+01
      2.886  0.3435E+01  0.6408E+01
      2.935  0.5109E+01  0.6659E+01
      2.984  0.6783E+01  0.6991E+01
      3.033  0.7963E+01  0.7382E+01
      3.082  0.8466E+01  0.7797E+01
      3.131  0.8562E+01  0.8216E+01
      3.180  0.8458E+01  0.8631E+01
      3.229  0.7935E+01  0.9020E+01
      3.278  0.6733E+01  0.9350E+01
      3.327  0.5053E+01  0.9598E+01
      3.376  0.3389E+01  0.9764E+01
      3.425  0.2088E+01  0.9866E+01
      3.474  0.1217E+01  0.9926E+01
      3.523  0.6850E+00  0.9959E+01
      3.572  0.3782E+00  0.9978E+01
      3.621  0.2037E+00  0.9988E+01
      3.670  0.1040E+00  0.9994E+01
      3.719  0.5628E-01  0.9997E+01
      3.768  0.3039E-01  0.9998E+01
      3.817  0.1640E-01  0.9999E+01
      3.866  0.0000E+00  0.1000E+02
      3.915  0.0000E+00  0.1000E+02
      3.964  0.0000E+00  0.1000E+02
      4.013  0.5033E-02  0.1000E+02
      4.062  0.6536E-02  0.1000E+02
      4.111  0.1293E-01  0.1000E+02
      4.160  0.2094E-01  0.1000E+02
      4.209  0.3879E-01  0.1000E+02
      4.258  0.7175E-01  0.1001E+02
      4.307  0.1323E+00  0.1001E+02
      4.356  0.2492E+00  0.1003E+02
      4.406  0.4514E+00  0.1005E+02
      4.455  0.8025E+00  0.1009E+02
      4.504  0.1394E+01  0.1016E+02
      4.553  0.2306E+01  0.1027E+02
      4.602  0.3543E+01  0.1044E+02
      4.651  0.4913E+01  0.1068E+02
      4.700  0.6006E+01  0.1098E+02
      4.749  0.6430E+01  0.1129E+02
      4.798  0.6156E+01  0.1160E+02
      4.847  0.5610E+01  0.1187E+02
      4.896  0.5346E+01  0.1213E+02
      4.945  0.5608E+01  0.1241E+02
      4.994  0.6150E+01  0.1271E+02
      5.043  0.6423E+01  0.1302E+02
      5.092  0.6005E+01  0.1332E+02
      5.141  0.4914E+01  0.1356E+02
      5.190  0.3541E+01  0.1373E+02
      5.239  0.2299E+01  0.1384E+02
      5.288  0.1392E+01  0.1391E+02
      5.337  0.7976E+00  0.1395E+02
      5.386  0.4497E+00  0.1397E+02
      5.435  0.2620E+00  0.1399E+02
      5.484  0.1658E+00  0.1400E+02
      5.533  0.1352E+00  0.1400E+02
      5.582  0.1566E+00  0.1401E+02
      5.631  0.2345E+00  0.1402E+02
      5.680  0.4002E+00  0.1404E+02
      5.729  0.6965E+00  0.1408E+02
      5.778  0.1196E+01  0.1414E+02
      5.827  0.1941E+01  0.1423E+02
      5.876  0.2895E+01  0.1437E+02
      5.925  0.3859E+01  0.1456E+02
      5.974  0.4561E+01  0.1479E+02
      6.023  0.4876E+01  0.1502E+02
      6.072  0.4842E+01  0.1526E+02
      6.121  0.4451E+01  0.1548E+02
      6.170  0.3679E+01  0.1566E+02
      6.219  0.2695E+01  0.1579E+02
      6.268  0.1773E+01  0.1588E+02
      6.317  0.1078E+01  0.1593E+02
      6.366  0.6227E+00  0.1596E+02
      6.415  0.3489E+00  0.1598E+02
      6.464  0.1920E+00  0.1599E+02
      6.513  0.1047E+00  0.1599E+02
      6.562  0.5677E-01  0.1600E+02
      6.611  0.2715E-01  0.1600E+02
      6.660  0.1466E-01  0.1600E+02
      6.709  0.1072E-01  0.1600E+02
      6.758  0.4626E-02  0.1600E+02
      6.807  0.9000E-02  0.1600E+02
      6.856  0.1744E-01  0.1600E+02
      6.905  0.2893E-01  0.1600E+02
      6.955  0.5353E-01  0.1601E+02
      7.004  0.9881E-01  0.1601E+02
      7.053  0.1816E+00  0.1602E+02
      7.102  0.3356E+00  0.1604E+02
      7.151  0.5980E+00  0.1607E+02
      7.200  0.1047E+01  0.1612E+02
      7.249  0.1761E+01  0.1620E+02