    4    4    5    1
  0.2228503E+02  0.7091058E-09  0.3545529E-09  0.3545529E-09  0.2000000E-14
   920.00000000000000     
  CAR 
 Al, 4 atoms                             
     12      4     12

  0.2500000E+00  0.2500000E+00  0.2500000E+00  0.2500000E+00
      1         -3.420706   1.000000
      2         -0.909831   1.000000
      3          2.064686   1.000000
      4          2.323545   1.000000
      5          2.634541   1.000000
      6          4.675037   0.836742
      7          4.907283   0.214939
      8          6.026648   0.000000
      9          7.853639   0.000000
     10          8.171714   0.000000
     11          8.372438   0.000000
     12         12.012317   0.000000

  0.2500000E+00 -0.2500000E+00  0.2500000E+00  0.2500000E+00
      1         -3.421131   1.000000
      2         -0.905725   1.000000
      3          1.993135   1.000000
      4          2.395888   1.000000
      5          2.628238   1.000000
      6          4.652162   0.872443
      7          4.959146   0.124595
      8          6.058698   0.000000
      9          7.778422   0.000000
     10          8.161771   0.000000
     11          8.332448   0.000000
     12         10.293512   0.000000

  0.2500000E+00 -0.2500000E+00 -0.2500000E+00  0.2500000E+00
      1         -3.421041   1.000000
      2         -0.906099   1.000000
      3          1.995973   1.000000
      4          2.385412   1.000000
      5          2.639951   1.000000
      6          4.682251   0.823927
      7          4.935452   0.161010
      8          5.960033   0.000000
      9          7.856970   0.000000
     10          8.179872   0.000000
     11          8.427837   0.000000
     12         10.543803   0.000000

  0.2500000E+00  0.2500000E+00 -0.2500000E+00  0.2500000E+00
      1         -3.420348   1.000000
      2         -0.912525   1.000000
      3          2.051068   1.000000
      4          2.364731   1.000000
      5          2.618801   1.000000
      6          4.688261   0.812658
      7          4.939833   0.153683
      8          5.884997   0.000001
      9          7.959333   0.000000
     10          8.203575   0.000000
     11          8.425612   0.000000
     12         10.237967   0.000000
