       N       E                     dE             d eps       ncg     rms          rms(c)
RMM:   1     0.175914069850E+02    0.17591E+02   -0.14725E+03    48   0.314E+02
RMM:   2    -0.720379052145E+01   -0.24795E+02   -0.23588E+02    48   0.671E+01
RMM:   3    -0.120640654466E+02   -0.48603E+01   -0.41819E+01    48   0.235E+01
RMM:   4    -0.129442106862E+02   -0.88015E+00   -0.55232E+00    48   0.113E+01
RMM:   5    -0.130943967381E+02   -0.15019E+00   -0.10960E+00    48   0.494E+00
RMM:   6    -0.131294862809E+02   -0.35090E-01   -0.25172E-01    48   0.246E+00
RMM:   7    -0.131386186221E+02   -0.91323E-02   -0.64584E-02    48   0.120E+00
RMM:   8    -0.131411136652E+02   -0.24950E-02   -0.17941E-02    48   0.616E-01
RMM:   9    -0.131416036780E+02   -0.49001E-03   -0.42167E-03    95   0.302E-01
RMM:  10    -0.131417385019E+02   -0.13482E-03   -0.12810E-03    87   0.164E-01
RMM:  11    -0.131417585878E+02   -0.20086E-04   -0.18330E-04    74   0.685E-02
RMM:  12    -0.131417638224E+02   -0.52345E-05   -0.51750E-05    69   0.354E-02    0.332E+00
RMM:  13    -0.123314966402E+02    0.81027E+00   -0.10426E+00   143   0.259E+00    0.155E+00
RMM:  14    -0.122893871479E+02    0.42109E-01   -0.55517E-02   116   0.847E-01    0.740E-01
RMM:  15    -0.122822634460E+02    0.71237E-02   -0.84907E-03    96   0.419E-01    0.169E-01
RMM:  16    -0.122818630391E+02    0.40041E-03   -0.10453E-03    96   0.184E-01    0.830E-02
RMM:  17    -0.122817635574E+02    0.99482E-04   -0.19337E-04    69   0.848E-02
      1 T=  1473. E= -.11702303E+02 F= -.12281764E+02 E0= -.12241713E+02  EK= 0.57137E+00 SP= 0.81E-02 SK= 0.16E-04
       N       E                     dE             d eps       ncg     rms          rms(c)
RMM:   1    -0.123041897295E+02   -0.22327E-01   -0.17992E-01    96   0.243E+00    0.168E-01
RMM:   2    -0.123027743144E+02    0.14154E-02   -0.89843E-03    96   0.661E-01    0.484E-02
RMM:   3    -0.123028576208E+02   -0.83306E-04   -0.13371E-03    96   0.274E-01    0.330E-02
RMM:   4    -0.123028659698E+02   -0.83490E-05   -0.13991E-04    68   0.904E-02
      2 T=  1528. E= -.11702258E+02 F= -.12302866E+02 E0= -.12261876E+02  EK= 0.59250E+00 SP= 0.81E-02 SK= 0.24E-04
       N       E                     dE             d eps       ncg     rms          rms(c)
RMM:   1    -0.123169148590E+02   -0.14057E-01   -0.13364E-03    96   0.252E-01    0.515E-02
RMM:   2    -0.123169139186E+02    0.94043E-06   -0.11803E-04    64   0.769E-02
      3 T=  1563. E= -.11702237E+02 F= -.12316914E+02 E0= -.12274822E+02  EK= 0.60612E+00 SP= 0.83E-02 SK= 0.21E-03
       N       E                     dE             d eps       ncg     rms          rms(c)
RMM:   1    -0.123250427309E+02   -0.81279E-02   -0.39885E-04    85   0.123E-01    0.236E-02
RMM:   2    -0.123250468454E+02   -0.41145E-05   -0.50652E-05    63   0.513E-02
      4 T=  1582. E= -.11702114E+02 F= -.12325047E+02 E0= -.12281758E+02  EK= 0.61346E+00 SP= 0.89E-02 SK= 0.59E-03
       N       E                     dE             d eps       ncg     rms          rms(c)
RMM:   1    -0.123284292972E+02   -0.33866E-02   -0.19985E-04    76   0.859E-02    0.553E-02
RMM:   2    -0.123284311289E+02   -0.18317E-05   -0.33832E-05    64   0.413E-02
      5 T=  1588. E= -.11701935E+02 F= -.12328431E+02 E0= -.12283839E+02  EK= 0.61561E+00 SP= 0.97E-02 SK= 0.12E-02
       N       E                     dE             d eps       ncg     rms          rms(c)
RMM:   1    -0.123282007413E+02    0.22856E-03   -0.14664E-04    71   0.646E-02    0.182E-01
RMM:   2    -0.123281956904E+02    0.50509E-05   -0.22227E-05    64   0.281E-02
      6 T=  1582. E= -.11701766E+02 F= -.12328196E+02 E0= -.12282202E+02  EK= 0.61364E+00 SP= 0.11E-01 SK= 0.20E-02
       N       E                     dE             d eps       ncg     rms          rms(c)
RMM:   1    -0.123253492863E+02    0.28515E-02   -0.24798E-04    81   0.731E-02    0.994E-02
RMM:   2    -0.123253069256E+02    0.42361E-04   -0.66751E-05    62   0.351E-02
      7 T=  1569. E= -.11701683E+02 F= -.12325307E+02 E0= -.12277941E+02  EK= 0.60847E+00 SP= 0.12E-01 SK= 0.30E-02
       N       E                     dE             d eps       ncg     rms          rms(c)
RMM:   1    -0.123205029274E+02    0.48464E-02   -0.30232E-04    88   0.769E-02    0.103E-01
RMM:   2    -0.123204920002E+02    0.10927E-04   -0.66470E-05    64   0.374E-02
      8 T=  1550. E= -.11701525E+02 F= -.12320492E+02 E0= -.12271671E+02  EK= 0.60100E+00 SP= 0.14E-01 SK= 0.41E-02
       N       E                     dE             d eps       ncg     rms          rms(c)
RMM:   1    -0.123143381135E+02    0.61648E-02   -0.47799E-04    89   0.843E-02    0.289E-02
RMM:   2    -0.123143304974E+02    0.76160E-05   -0.38867E-05    61   0.342E-02
      9 T=  1526. E= -.11701374E+02 F= -.12314330E+02 E0= -.12264034E+02  EK= 0.59177E+00 SP= 0.16E-01 SK= 0.54E-02
       N       E                     dE             d eps       ncg     rms          rms(c)
RMM:   1    -0.123073025842E+02    0.70355E-02   -0.73040E-04    85   0.864E-02    0.331E-02
RMM:   2    -0.123073058606E+02   -0.32763E-05   -0.47552E-05    61   0.342E-02
     10 T=  1499. E= -.11701348E+02 F= -.12307306E+02 E0= -.12255573E+02  EK= 0.58118E+00 SP= 0.18E-01 SK= 0.68E-02
       N       E                     dE             d eps       ncg     rms          rms(c)
RMM:   1    -0.122997069292E+02    0.75957E-02   -0.22799E-04    73   0.614E-02    0.138E-02
RMM:   2    -0.122997084849E+02   -0.15557E-05   -0.18735E-05    56   0.243E-02
     11 T=  1469. E= -.11701317E+02 F= -.12299708E+02 E0= -.12246608E+02  EK= 0.56970E+00 SP= 0.20E-01 SK= 0.83E-02
       N       E                     dE             d eps       ncg     rms          rms(c)
RMM:   1    -0.122916329758E+02    0.80740E-02   -0.40887E-04    75   0.659E-02    0.949E-03
RMM:   2    -0.122916360585E+02   -0.30827E-05   -0.35759E-05    57   0.300E-02
     12 T=  1437. E= -.11701305E+02 F= -.12291636E+02 E0= -.12237265E+02  EK= 0.55743E+00 SP= 0.23E-01 SK= 0.98E-02
       N       E                     dE             d eps       ncg     rms          rms(c)
RMM:   1    -0.122830673299E+02    0.85656E-02   -0.23239E-04    71   0.620E-02    0.331E-03
RMM:   2    -0.122830692316E+02   -0.19017E-05   -0.21645E-05    59   0.267E-02
     13 T=  1404. E= -.11701306E+02 F= -.12283069E+02 E0= -.12227553E+02  EK= 0.54441E+00 SP= 0.26E-01 SK= 0.11E-01
       N       E                     dE             d eps       ncg     rms          rms(c)
RMM:   1    -0.122739708787E+02    0.90965E-02   -0.19987E-04    73   0.559E-02    0.910E-03
RMM:   2    -0.122739725396E+02   -0.16609E-05   -0.18527E-05    54   0.239E-02
     14 T=  1368. E= -.11701318E+02 F= -.12273973E+02 E0= -.12217468E+02  EK= 0.53065E+00 SP= 0.29E-01 SK= 0.13E-01
       N       E                     dE             d eps       ncg     rms          rms(c)
RMM:   1    -0.122643257409E+02    0.96451E-02   -0.15909E-04    69   0.565E-02    0.466E-03
RMM:   2    -0.122643271428E+02   -0.14019E-05   -0.15010E-05    54   0.230E-02
     15 T=  1331. E= -.11701320E+02 F= -.12264327E+02 E0= -.12206998E+02  EK= 0.51620E+00 SP= 0.32E-01 SK= 0.15E-01
       N       E                     dE             d eps       ncg     rms          rms(c)
RMM:   1    -0.122541084173E+02    0.10217E-01   -0.35881E-04    77   0.663E-02    0.138E-02
RMM:   2    -0.122541112627E+02   -0.28454E-05   -0.30211E-05    60   0.302E-02
     16 T=  1292. E= -.11701314E+02 F= -.12254111E+02 E0= -.12196147E+02  EK= 0.50106E+00 SP= 0.36E-01 SK= 0.16E-01
       N       E                     dE             d eps       ncg     rms          rms(c)
RMM:   1    -0.122432875867E+02    0.10821E-01   -0.50757E-04    81   0.751E-02    0.122E-02
RMM:   2    -0.122432917443E+02   -0.41575E-05   -0.43421E-05    62   0.355E-02
     17 T=  1251. E= -.11701307E+02 F= -.12243292E+02 E0= -.12184881E+02  EK= 0.48526E+00 SP= 0.39E-01 SK= 0.17E-01
       N       E                     dE             d eps       ncg     rms          rms(c)
RMM:   1    -0.122318708779E+02    0.11417E-01   -0.41813E-04    78   0.691E-02    0.392E-03
RMM:   2    -0.122318741796E+02   -0.33017E-05   -0.34671E-05    61   0.322E-02
     18 T=  1209. E= -.11701301E+02 F= -.12231874E+02 E0= -.12173205E+02  EK= 0.46883E+00 SP= 0.43E-01 SK= 0.19E-01
       N       E                     dE             d eps       ncg     rms          rms(c)
RMM:   1    -0.122199646977E+02    0.11906E-01   -0.35388E-04    77   0.652E-02    0.751E-03
RMM:   2    -0.122199676989E+02   -0.30012E-05   -0.30223E-05    58   0.288E-02
     19 T=  1165. E= -.11701291E+02 F= -.12219968E+02 E0= -.12161216E+02  EK= 0.45194E+00 SP= 0.47E-01 SK= 0.20E-01
       N       E                     dE             d eps       ncg     rms          rms(c)
RMM:   1    -0.122078046314E+02    0.12160E-01   -0.69779E-04    85   0.819E-02    0.344E-03
RMM:   2    -0.122078104514E+02   -0.58199E-05   -0.59442E-05    63   0.389E-02
     20 T=  1121. E= -.11701275E+02 F= -.12207810E+02 E0= -.12149142E+02  EK= 0.43485E+00 SP= 0.51E-01 SK= 0.21E-01
       N       E                     dE             d eps       ncg     rms          rms(c)
RMM:   1    -0.121957268606E+02    0.12078E-01   -0.99933E-04    88   0.954E-02    0.711E-03
RMM:   2    -0.121957357353E+02   -0.88747E-05   -0.88479E-05    67   0.475E-02
     21 T=  1078. E= -.11701268E+02 F= -.12195736E+02 E0= -.12137293E+02  EK= 0.41793E+00 SP= 0.55E-01 SK= 0.21E-01
       N       E                     dE             d eps       ncg     rms          rms(c)
RMM:   1    -0.121840801079E+02    0.11647E-01   -0.82325E-04    88   0.897E-02    0.777E-03
RMM:   2    -0.121840873084E+02   -0.72005E-05   -0.72065E-05    63   0.440E-02
     22 T=  1035. E= -.11701267E+02 F= -.12184087E+02 E0= -.12125999E+02  EK= 0.40154E+00 SP= 0.59E-01 SK= 0.22E-01
       N       E                     dE             d eps       ncg     rms          rms(c)
RMM:   1    -0.121731386373E+02    0.10941E-01   -0.74591E-04    86   0.854E-02    0.527E-03
RMM:   2    -0.121731453813E+02   -0.67440E-05   -0.67141E-05    62   0.414E-02
     23 T=   995. E= -.11701263E+02 F= -.12173145E+02 E0= -.12115510E+02  EK= 0.38598E+00 SP= 0.63E-01 SK= 0.23E-01
       N       E                     dE             d eps       ncg     rms          rms(c)
RMM:   1    -0.121630706927E+02    0.10068E-01   -0.14855E-03    90   0.110E-01    0.118E-02
RMM:   2    -0.121630841616E+02   -0.13469E-04   -0.13449E-04    69   0.559E-02
     24 T=   958. E= -.11701266E+02 F= -.12163084E+02 E0= -.12105976E+02  EK= 0.37145E+00 SP= 0.68E-01 SK= 0.23E-01
       N       E                     dE             d eps       ncg     rms          rms(c)
RMM:   1    -0.121539463779E+02    0.91243E-02   -0.16162E-03    90   0.117E-01    0.946E-03
RMM:   2    -0.121539623838E+02   -0.16006E-04   -0.15394E-04    69   0.598E-02
     25 T=   923. E= -.11701289E+02 F= -.12153962E+02 E0= -.12097439E+02  EK= 0.35798E+00 SP= 0.72E-01 SK= 0.23E-01
       N       E                     dE             d eps       ncg     rms          rms(c)
RMM:   1    -0.121457141167E+02    0.82323E-02   -0.85906E-04    82   0.885E-02    0.515E-03
RMM:   2    -0.121457219526E+02   -0.78359E-05   -0.81929E-05    66   0.433E-02
     26 T=   891. E= -.11701318E+02 F= -.12145722E+02 E0= -.12089810E+02  EK= 0.34554E+00 SP= 0.76E-01 SK= 0.23E-01
       N       E                     dE             d eps       ncg     rms          rms(c)
RMM:   1    -0.121381834939E+02    0.75306E-02   -0.15426E-03    90   0.110E-01    0.520E-03
RMM:   2    -0.121381978551E+02   -0.14361E-04   -0.13679E-04    68   0.561E-02
     27 T=   861. E= -.11701344E+02 F= -.12138198E+02 E0= -.12082910E+02  EK= 0.33397E+00 SP= 0.80E-01 SK= 0.23E-01
       N       E                     dE             d eps       ncg     rms          rms(c)
RMM:   1    -0.121311658494E+02    0.70176E-02   -0.10161E-03    87   0.103E-01    0.881E-03
RMM:   2    -0.121311749121E+02   -0.90627E-05   -0.98083E-05    66   0.504E-02
     28 T=   833. E= -.11701371E+02 F= -.12131175E+02 E0= -.12076501E+02  EK= 0.32306E+00 SP= 0.84E-01 SK= 0.22E-01
       N       E                     dE             d eps       ncg     rms          rms(c)
RMM:   1    -0.121244245613E+02    0.67413E-02   -0.88817E-04    86   0.934E-02    0.906E-03
RMM:   2    -0.121244330911E+02   -0.85297E-05   -0.86234E-05    64   0.461E-02
     29 T=   806. E= -.11701400E+02 F= -.12124433E+02 E0= -.12070353E+02  EK= 0.31259E+00 SP= 0.89E-01 SK= 0.22E-01
       N       E                     dE             d eps       ncg     rms          rms(c)
RMM:   1    -0.121178408448E+02    0.65837E-02   -0.40344E-04    83   0.795E-02    0.790E-03
RMM:   2    -0.121178450368E+02   -0.41921E-05   -0.43224E-05    62   0.371E-02
     30 T=   780. E= -.11701425E+02 F= -.12117845E+02 E0= -.12064328E+02  EK= 0.30243E+00 SP= 0.93E-01 SK= 0.21E-01
       N       E                     dE             d eps       ncg     rms          rms(c)
RMM:   1    -0.121114368954E+02    0.64039E-02   -0.54920E-04    82   0.752E-02    0.494E-03
RMM:   2    -0.121114414415E+02   -0.45461E-05   -0.53473E-05    63   0.361E-02
     31 T=   755. E= -.11701430E+02 F= -.12111441E+02 E0= -.12058438E+02  EK= 0.29265E+00 SP= 0.97E-01 SK= 0.21E-01
       N       E                     dE             d eps       ncg     rms          rms(c)
RMM:   1    -0.121054505026E+02    0.59864E-02   -0.63643E-04    85   0.826E-02    0.481E-03
RMM:   2    -0.121054568387E+02   -0.63361E-05   -0.63795E-05    66   0.402E-02
     32 T=   731. E= -.11701413E+02 F= -.12105457E+02 E0= -.12052915E+02  EK= 0.28347E+00 SP= 0.10E+00 SK= 0.20E-01
       N       E                     dE             d eps       ncg     rms          rms(c)
RMM:   1    -0.121003063019E+02    0.51442E-02   -0.76935E-04    87   0.835E-02    0.674E-03
RMM:   2    -0.121003133838E+02   -0.70819E-05   -0.69925E-05    67   0.413E-02
     33 T=   710. E= -.11701387E+02 F= -.12100313E+02 E0= -.12048164E+02  EK= 0.27530E+00 SP= 0.10E+00 SK= 0.19E-01
       N       E                     dE             d eps       ncg     rms          rms(c)
RMM:   1    -0.120965445468E+02    0.37618E-02   -0.64742E-04    84   0.811E-02    0.629E-03
RMM:   2    -0.120965510876E+02   -0.65408E-05   -0.63616E-05    66   0.403E-02
     34 T=   693. E= -.11701361E+02 F= -.12096551E+02 E0= -.12044717E+02  EK= 0.26866E+00 SP= 0.11E+00 SK= 0.18E-01
       N       E                     dE             d eps       ncg     rms          rms(c)
RMM:   1    -0.120946975067E+02    0.18470E-02   -0.57220E-04    82   0.749E-02    0.708E-03
RMM:   2    -0.120947034981E+02   -0.59913E-05   -0.57771E-05    65   0.371E-02
     35 T=   681. E= -.11701339E+02 F= -.12094703E+02 E0= -.12043105E+02  EK= 0.26406E+00 SP= 0.11E+00 SK= 0.17E-01
       N       E                     dE             d eps       ncg     rms          rms(c)
RMM:   1    -0.120951560737E+02   -0.45857E-03   -0.68883E-04    90   0.834E-02    0.490E-03
RMM:   2    -0.120951624804E+02   -0.64067E-05   -0.67989E-05    68   0.423E-02
     36 T=   675. E= -.11701332E+02 F= -.12095162E+02 E0= -.12043712E+02  EK= 0.26186E+00 SP= 0.12E+00 SK= 0.16E-01
       N       E                     dE             d eps       ncg     rms          rms(c)
RMM:   1    -0.120980558233E+02   -0.28997E-02   -0.10519E-03    91   0.943E-02    0.499E-03
RMM:   2    -0.120980661927E+02   -0.10369E-04   -0.98998E-05    71   0.482E-02
     37 T=   676. E= -.11701347E+02 F= -.12098066E+02 E0= -.12046665E+02  EK= 0.26218E+00 SP= 0.12E+00 SK= 0.15E-01
       N       E                     dE             d eps       ncg     rms          rms(c)
RMM:   1    -0.121032241463E+02   -0.51683E-02   -0.10760E-03    90   0.939E-02    0.607E-03
RMM:   2    -0.121032340321E+02   -0.98858E-05   -0.98582E-05    71   0.473E-02
     38 T=   683. E= -.11701385E+02 F= -.12103234E+02 E0= -.12051773E+02  EK= 0.26479E+00 SP= 0.12E+00 SK= 0.14E-01
       N       E                     dE             d eps       ncg     rms          rms(c)
RMM:   1    -0.121101736672E+02   -0.69495E-02   -0.64824E-04    87   0.844E-02    0.895E-03
RMM:   2    -0.121101791366E+02   -0.54694E-05   -0.61631E-05    66   0.415E-02
     39 T=   694. E= -.11701434E+02 F= -.12110179E+02 E0= -.12058546E+02  EK= 0.26922E+00 SP= 0.13E+00 SK= 0.14E-01
       N       E                     dE             d eps       ncg     rms          rms(c)
RMM:   1    -0.121181799458E+02   -0.80063E-02   -0.66798E-04    85   0.834E-02    0.798E-03
RMM:   2    -0.121181869079E+02   -0.69620E-05   -0.69134E-05    68   0.416E-02
     40 T=   708. E= -.11701479E+02 F= -.12118187E+02 E0= -.12066271E+02  EK= 0.27474E+00 SP= 0.13E+00 SK= 0.13E-01
       N       E                     dE             d eps       ncg     rms          rms(c)
RMM:   1    -0.121264425631E+02   -0.82626E-02   -0.58921E-04    84   0.800E-02    0.128E-02
RMM:   2    -0.121264480989E+02   -0.55358E-05   -0.59452E-05    65   0.387E-02
     41 T=   723. E= -.11701514E+02 F= -.12126448E+02 E0= -.12074126E+02  EK= 0.28054E+00 SP= 0.13E+00 SK= 0.12E-01
       N       E                     dE             d eps       ncg     rms          rms(c)
RMM:   1    -0.121341895785E+02   -0.77470E-02   -0.81399E-04    84   0.854E-02    0.651E-03
RMM:   2    -0.121341964722E+02   -0.68937E-05   -0.71432E-05    65   0.411E-02
     42 T=   737. E= -.11701538E+02 F= -.12134196E+02 E0= -.12081335E+02  EK= 0.28586E+00 SP= 0.14E+00 SK= 0.11E-01
       N       E                     dE             d eps       ncg     rms          rms(c)
RMM:   1    -0.121408317014E+02   -0.66421E-02   -0.51857E-04    89   0.786E-02    0.123E-02
RMM:   2    -0.121408368173E+02   -0.51159E-05   -0.47970E-05    65   0.376E-02
     43 T=   748. E= -.11701559E+02 F= -.12140837E+02 E0= -.12087317E+02  EK= 0.29009E+00 SP= 0.14E+00 SK= 0.11E-01
       N       E                     dE             d eps       ncg     rms          rms(c)
RMM:   1    -0.121460027791E+02   -0.51711E-02   -0.72696E-04    87   0.878E-02    0.888E-03
RMM:   2    -0.121460097314E+02   -0.69523E-05   -0.66214E-05    66   0.431E-02
     44 T=   755. E= -.11701571E+02 F= -.12146010E+02 E0= -.12091714E+02  EK= 0.29289E+00 SP= 0.14E+00 SK= 0.10E-01
       N       E                     dE             d eps       ncg     rms          rms(c)
RMM:   1    -0.121496182820E+02   -0.36155E-02   -0.37511E-04    84   0.754E-02    0.128E-02
RMM:   2    -0.121496210269E+02   -0.27448E-05   -0.35800E-05    64   0.347E-02
     45 T=   759. E= -.11701554E+02 F= -.12149621E+02 E0= -.12094426E+02  EK= 0.29421E+00 SP= 0.14E+00 SK= 0.99E-02
       N       E                     dE             d eps       ncg     rms          rms(c)
RMM:   1    -0.121518133601E+02   -0.21951E-02   -0.32173E-04    80   0.651E-02    0.200E-02
RMM:   2    -0.121518164027E+02   -0.30426E-05   -0.29234E-05    61   0.306E-02
     46 T=   759. E= -.11701509E+02 F= -.12151816E+02 E0= -.12095635E+02  EK= 0.29419E+00 SP= 0.15E+00 SK= 0.94E-02
       N       E                     dE             d eps       ncg     rms          rms(c)
RMM:   1    -0.121529198496E+02   -0.11065E-02   -0.60135E-04    89   0.807E-02    0.894E-03
RMM:   2    -0.121529251098E+02   -0.52601E-05   -0.52700E-05    63   0.397E-02
     47 T=   756. E= -.11701457E+02 F= -.12152925E+02 E0= -.12095682E+02  EK= 0.29314E+00 SP= 0.15E+00 SK= 0.89E-02
       N       E                     dE             d eps       ncg     rms          rms(c)
RMM:   1    -0.121533675192E+02   -0.44767E-03   -0.99759E-04    91   0.101E-01    0.123E-02
RMM:   2    -0.121533768305E+02   -0.93113E-05   -0.91865E-05    64   0.516E-02
     48 T=   752. E= -.11701400E+02 F= -.12153377E+02 E0= -.12095017E+02  EK= 0.29152E+00 SP= 0.15E+00 SK= 0.85E-02
       N       E                     dE             d eps       ncg     rms          rms(c)
RMM:   1    -0.121536080492E+02   -0.24053E-03   -0.69373E-04    84   0.822E-02    0.149E-02
RMM:   2    -0.121536136338E+02   -0.55845E-05   -0.59577E-05    64   0.407E-02
     49 T=   747. E= -.11701333E+02 F= -.12153614E+02 E0= -.12094092E+02  EK= 0.28976E+00 SP= 0.15E+00 SK= 0.80E-02
       N       E                     dE             d eps       ncg     rms          rms(c)
RMM:   1    -0.121539917865E+02   -0.38374E-03   -0.82983E-04    86   0.874E-02    0.116E-02
RMM:   2    -0.121539981049E+02   -0.63184E-05   -0.71932E-05    61   0.433E-02
     50 T=   743. E= -.11701284E+02 F= -.12153998E+02 E0= -.12093288E+02  EK= 0.28820E+00 SP= 0.16E+00 SK= 0.75E-02
       N       E                     dE             d eps       ncg     rms          rms(c)
RMM:   1    -0.121547653453E+02   -0.77356E-03   -0.10521E-03    90   0.101E-01    0.135E-02
RMM:   2    -0.121547755147E+02   -0.10169E-04   -0.96991E-05    64   0.527E-02
     51 T=   740. E= -.11701266E+02 F= -.12154776E+02 E0= -.12092895E+02  EK= 0.28707E+00 SP= 0.16E+00 SK= 0.71E-02
       N       E                     dE             d eps       ncg     rms          rms(c)
RMM:   1    -0.121560519426E+02   -0.12866E-02   -0.95599E-04    93   0.954E-02    0.109E-02
RMM:   2    -0.121560596062E+02   -0.76636E-05   -0.78600E-05    63   0.478E-02
     52 T=   739. E= -.11701263E+02 F= -.12156060E+02 E0= -.12093040E+02  EK= 0.28650E+00 SP= 0.16E+00 SK= 0.66E-02
       N       E                     dE             d eps       ncg     rms          rms(c)
RMM:   1    -0.121578404102E+02   -0.17885E-02   -0.90249E-04    86   0.904E-02    0.724E-03
RMM:   2    -0.121578480581E+02   -0.76479E-05   -0.73424E-05    63   0.450E-02
     53 T=   739. E= -.11701261E+02 F= -.12157848E+02 E0= -.12093741E+02  EK= 0.28650E+00 SP= 0.16E+00 SK= 0.62E-02
       N       E                     dE             d eps       ncg     rms          rms(c)
RMM:   1    -0.121600552523E+02   -0.22148E-02   -0.73187E-04    87   0.855E-02    0.454E-03
RMM:   2    -0.121600617623E+02   -0.65101E-05   -0.62950E-05    63   0.424E-02
     54 T=   740. E= -.11701259E+02 F= -.12160062E+02 E0= -.12094929E+02  EK= 0.28698E+00 SP= 0.17E+00 SK= 0.57E-02
       N       E                     dE             d eps       ncg     rms          rms(c)
RMM:   1    -0.121625596094E+02   -0.25044E-02   -0.10213E-03    88   0.951E-02    0.781E-03
RMM:   2    -0.121625676419E+02   -0.80324E-05   -0.80670E-05    63   0.472E-02
     55 T=   742. E= -.11701261E+02 F= -.12162568E+02 E0= -.12096483E+02  EK= 0.28781E+00 SP= 0.17E+00 SK= 0.53E-02
       N       E                     dE             d eps       ncg     rms          rms(c)
RMM:   1    -0.121651992029E+02   -0.26396E-02   -0.10416E-03    86   0.936E-02    0.974E-03
RMM:   2    -0.121652075902E+02   -0.83874E-05   -0.81071E-05    61   0.458E-02
     56 T=   745. E= -.11701266E+02 F= -.12165208E+02 E0= -.12098249E+02  EK= 0.28882E+00 SP= 0.17E+00 SK= 0.49E-02
       N       E                     dE             d eps       ncg     rms          rms(c)
RMM:   1    -0.121678169201E+02   -0.26177E-02   -0.68188E-04    81   0.761E-02    0.529E-03
RMM:   2    -0.121678225317E+02   -0.56116E-05   -0.54598E-05    61   0.370E-02
     57 T=   748. E= -.11701270E+02 F= -.12167823E+02 E0= -.12100082E+02  EK= 0.28987E+00 SP= 0.17E+00 SK= 0.46E-02
       N       E                     dE             d eps       ncg     rms          rms(c)
RMM:   1    -0.121702745729E+02   -0.24577E-02   -0.72603E-04    85   0.800E-02    0.603E-03
RMM:   2    -0.121702805089E+02   -0.59360E-05   -0.58442E-05    63   0.389E-02
     58 T=   750. E= -.11701267E+02 F= -.12170281E+02 E0= -.12101853E+02  EK= 0.29082E+00 SP= 0.17E+00 SK= 0.42E-02
       N       E                     dE             d eps       ncg     rms          rms(c)
RMM:   1    -0.121725013372E+02   -0.22268E-02   -0.10829E-03    88   0.930E-02    0.752E-03
RMM:   2    -0.121725097636E+02   -0.84264E-05   -0.86597E-05    66   0.465E-02
     59 T=   752. E= -.11701258E+02 F= -.12172510E+02 E0= -.12103487E+02  EK= 0.29160E+00 SP= 0.18E+00 SK= 0.39E-02
       N       E                     dE             d eps       ncg     rms          rms(c)
RMM:   1    -0.121745131642E+02   -0.20118E-02   -0.11493E-03    89   0.926E-02    0.546E-03
RMM:   2    -0.121745215325E+02   -0.83683E-05   -0.87123E-05    66   0.458E-02
     60 T=   754. E= -.11701244E+02 F= -.12174522E+02 E0= -.12105000E+02  EK= 0.29223E+00 SP= 0.18E+00 SK= 0.36E-02
       N       E                     dE             d eps       ncg     rms          rms(c)
RMM:   1    -0.121764118810E+02   -0.18987E-02   -0.94233E-04    88   0.877E-02    0.850E-03
RMM:   2    -0.121764197026E+02   -0.78216E-05   -0.76319E-05    63   0.440E-02
     61 T=   755. E= -.11701232E+02 F= -.12176420E+02 E0= -.12106498E+02  EK= 0.29279E+00 SP= 0.18E+00 SK= 0.33E-02
       N       E                     dE             d eps       ncg     rms          rms(c)
RMM:   1    -0.121783858596E+02   -0.19740E-02   -0.82166E-04    85   0.854E-02    0.104E-02
RMM:   2    -0.121783930269E+02   -0.71673E-05   -0.73239E-05    64   0.436E-02
     62 T=   757. E= -.11701219E+02 F= -.12178393E+02 E0= -.12108170E+02  EK= 0.29349E+00 SP= 0.18E+00 SK= 0.30E-02
       N       E                     dE             d eps       ncg     rms          rms(c)
RMM:   1    -0.121806897353E+02   -0.23039E-02   -0.90809E-04    90   0.878E-02    0.731E-03
RMM:   2    -0.121806969861E+02   -0.72508E-05   -0.71428E-05    65   0.431E-02
     63 T=   760. E= -.11701193E+02 F= -.12180697E+02 E0= -.12110282E+02  EK= 0.29458E+00 SP= 0.18E+00 SK= 0.28E-02
       N       E                     dE             d eps       ncg     rms          rms(c)
RMM:   1    -0.121836104149E+02   -0.29207E-02   -0.96902E-04    87   0.853E-02    0.568E-03
RMM:   2    -0.121836173071E+02   -0.68922E-05   -0.72537E-05    65   0.423E-02
     64 T=   764. E= -.11701165E+02 F= -.12183617E+02 E0= -.12113127E+02  EK= 0.29634E+00 SP= 0.18E+00 SK= 0.25E-02
       N       E                     dE             d eps       ncg     rms          rms(c)
RMM:   1    -0.121874406545E+02   -0.38302E-02   -0.97350E-04    87   0.829E-02    0.515E-03
RMM:   2    -0.121874488712E+02   -0.82166E-05   -0.83534E-05    65   0.421E-02
     65 T=   771. E= -.11701140E+02 F= -.12187449E+02 E0= -.12117004E+02  EK= 0.29905E+00 SP= 0.18E+00 SK= 0.23E-02
       N       E                     dE             d eps       ncg     rms          rms(c)
RMM:   1    -0.121924645549E+02   -0.50239E-02   -0.42207E-04    78   0.663E-02    0.321E-03
RMM:   2    -0.121924680011E+02   -0.34461E-05   -0.36485E-05    61   0.312E-02
     66 T=   781. E= -.11701112E+02 F= -.12192468E+02 E0= -.12122189E+02  EK= 0.30300E+00 SP= 0.19E+00 SK= 0.21E-02
       N       E                     dE             d eps       ncg     rms          rms(c)
RMM:   1    -0.121989072529E+02   -0.64427E-02   -0.86047E-04    78   0.744E-02    0.470E-03
RMM:   2    -0.121989139043E+02   -0.66514E-05   -0.66524E-05    61   0.350E-02
     67 T=   795. E= -.11701099E+02 F= -.12198914E+02 E0= -.12128927E+02  EK= 0.30839E+00 SP= 0.19E+00 SK= 0.19E-02
       N       E                     dE             d eps       ncg     rms          rms(c)
RMM:   1    -0.122069726923E+02   -0.80654E-02   -0.50377E-04    78   0.675E-02    0.473E-03
RMM:   2    -0.122069770176E+02   -0.43253E-05   -0.43619E-05    58   0.303E-02
     68 T=   813. E= -.11701104E+02 F= -.12206977E+02 E0= -.12137408E+02  EK= 0.31541E+00 SP= 0.19E+00 SK= 0.18E-02
       N       E                     dE             d eps       ncg     rms          rms(c)
RMM:   1    -0.122167674792E+02   -0.97948E-02   -0.29840E-04    74   0.584E-02    0.374E-03
RMM:   2    -0.122167701278E+02   -0.26487E-05   -0.27275E-05    58   0.265E-02
     69 T=   836. E= -.11701113E+02 F= -.12216770E+02 E0= -.12147727E+02  EK= 0.32416E+00 SP= 0.19E+00 SK= 0.16E-02
       N       E                     dE             d eps       ncg     rms          rms(c)
RMM:   1    -0.122282944762E+02   -0.11527E-01   -0.47597E-04    76   0.663E-02    0.354E-03
RMM:   2    -0.122282982681E+02   -0.37919E-05   -0.39633E-05    56   0.305E-02
     70 T=   863. E= -.11701121E+02 F= -.12228298E+02 E0= -.12159883E+02  EK= 0.33466E+00 SP= 0.19E+00 SK= 0.15E-02
       N       E                     dE             d eps       ncg     rms          rms(c)
RMM:   1    -0.122414352966E+02   -0.13141E-01   -0.75531E-04    81   0.787E-02    0.279E-03
RMM:   2    -0.122414410842E+02   -0.57876E-05   -0.59638E-05    63   0.374E-02
     71 T=   894. E= -.11701143E+02 F= -.12241441E+02 E0= -.12173733E+02  EK= 0.34674E+00 SP= 0.19E+00 SK= 0.15E-02
       N       E                     dE             d eps       ncg     rms          rms(c)
RMM:   1    -0.122559487298E+02   -0.14513E-01   -0.82244E-04    87   0.843E-02    0.523E-03
RMM:   2    -0.122559547331E+02   -0.60033E-05   -0.61179E-05    63   0.400E-02
     72 T=   929. E= -.11701179E+02 F= -.12255955E+02 E0= -.12189006E+02  EK= 0.36015E+00 SP= 0.19E+00 SK= 0.15E-02
       N       E                     dE             d eps       ncg     rms          rms(c)
RMM:   1    -0.122714935092E+02   -0.15545E-01   -0.54350E-04    88   0.795E-02    0.434E-03
RMM:   2    -0.122714980163E+02   -0.45071E-05   -0.46531E-05    63   0.376E-02
     73 T=   966. E= -.11701217E+02 F= -.12271498E+02 E0= -.12205334E+02  EK= 0.37454E+00 SP= 0.19E+00 SK= 0.15E-02
       N       E                     dE             d eps       ncg     rms          rms(c)
RMM:   1    -0.122876642647E+02   -0.16171E-01   -0.70320E-04    89   0.824E-02    0.611E-03
RMM:   2    -0.122876697324E+02   -0.54677E-05   -0.58223E-05    63   0.401E-02
     74 T=  1004. E= -.11701250E+02 F= -.12287670E+02 E0= -.12222308E+02  EK= 0.38950E+00 SP= 0.20E+00 SK= 0.16E-02
       N       E                     dE             d eps       ncg     rms          rms(c)
RMM:   1    -0.123040371533E+02   -0.16373E-01   -0.79282E-04    87   0.847E-02    0.638E-03
RMM:   2    -0.123040433685E+02   -0.62152E-05   -0.63868E-05    65   0.404E-02
     75 T=  1043. E= -.11701285E+02 F= -.12304043E+02 E0= -.12239472E+02  EK= 0.40458E+00 SP= 0.20E+00 SK= 0.17E-02
       N       E                     dE             d eps       ncg     rms          rms(c)
RMM:   1    -0.123201751929E+02   -0.16138E-01   -0.88647E-04    79   0.813E-02    0.576E-03
RMM:   2    -0.123201829164E+02   -0.77235E-05   -0.77186E-05    61   0.393E-02
     76 T=  1081. E= -.11701324E+02 F= -.12320183E+02 E0= -.12256391E+02  EK= 0.41931E+00 SP= 0.20E+00 SK= 0.19E-02
       N       E                     dE             d eps       ncg     rms          rms(c)
RMM:   1    -0.123356535587E+02   -0.15478E-01   -0.11144E-03    83   0.910E-02    0.503E-03
RMM:   2    -0.123356636675E+02   -0.10109E-04   -0.97109E-05    64   0.440E-02
     77 T=  1117. E= -.11701360E+02 F= -.12335664E+02 E0= -.12272634E+02  EK= 0.43325E+00 SP= 0.20E+00 SK= 0.22E-02
       N       E                     dE             d eps       ncg     rms          rms(c)
RMM:   1    -0.123500853554E+02   -0.14432E-01   -0.14113E-03    87   0.992E-02    0.413E-03
RMM:   2    -0.123500979670E+02   -0.12612E-04   -0.12514E-04    66   0.491E-02
     78 T=  1150. E= -.11701396E+02 F= -.12350098E+02 E0= -.12287808E+02  EK= 0.44599E+00 SP= 0.20E+00 SK= 0.25E-02
       N       E                     dE             d eps       ncg     rms          rms(c)
RMM:   1    -0.123631485403E+02   -0.13063E-01   -0.92712E-04    87   0.915E-02    0.411E-03
RMM:   2    -0.123631570222E+02   -0.84818E-05   -0.83386E-05    63   0.455E-02
     79 T=  1179. E= -.11701426E+02 F= -.12363157E+02 E0= -.12301576E+02  EK= 0.45720E+00 SP= 0.20E+00 SK= 0.29E-02
       N       E                     dE             d eps       ncg     rms          rms(c)
RMM:   1    -0.123745642721E+02   -0.11416E-01   -0.13065E-03    81   0.966E-02    0.440E-03
RMM:   2    -0.123745770013E+02   -0.12729E-04   -0.12498E-04    62   0.480E-02
     80 T=  1203. E= -.11701444E+02 F= -.12374577E+02 E0= -.12313666E+02  EK= 0.46660E+00 SP= 0.20E+00 SK= 0.33E-02
       N       E                     dE             d eps       ncg     rms          rms(c)
RMM:   1    -0.123841605497E+02   -0.95963E-02   -0.66418E-04    84   0.891E-02    0.513E-03
RMM:   2    -0.123841671414E+02   -0.65916E-05   -0.67835E-05    64   0.423E-02
     81 T=  1222. E= -.11701461E+02 F= -.12384167E+02 E0= -.12323879E+02  EK= 0.47397E+00 SP= 0.20E+00 SK= 0.38E-02
       N       E                     dE             d eps       ncg     rms          rms(c)
RMM:   1    -0.123917876676E+02   -0.76271E-02   -0.65764E-04    84   0.847E-02    0.540E-03
RMM:   2    -0.123917946627E+02   -0.69951E-05   -0.67400E-05    65   0.413E-02
     82 T=  1236. E= -.11701476E+02 F= -.12391795E+02 E0= -.12332061E+02  EK= 0.47918E+00 SP= 0.21E+00 SK= 0.44E-02
       N       E                     dE             d eps       ncg     rms          rms(c)
RMM:   1    -0.123973845107E+02   -0.55968E-02   -0.55906E-04    81   0.788E-02    0.523E-03
RMM:   2    -0.123973904600E+02   -0.59493E-05   -0.58225E-05    64   0.380E-02
     83 T=  1243. E= -.11701487E+02 F= -.12397390E+02 E0= -.12338100E+02  EK= 0.48216E+00 SP= 0.21E+00 SK= 0.51E-02
       N       E                     dE             d eps       ncg     rms          rms(c)
RMM:   1    -0.124009258447E+02   -0.35413E-02   -0.61861E-04    85   0.770E-02    0.524E-03
RMM:   2    -0.124009318054E+02   -0.59607E-05   -0.59856E-05    64   0.378E-02
     84 T=  1245. E= -.11701488E+02 F= -.12400932E+02 E0= -.12341951E+02  EK= 0.48291E+00 SP= 0.21E+00 SK= 0.58E-02
       N       E                     dE             d eps       ncg     rms          rms(c)
RMM:   1    -0.124024404792E+02   -0.15146E-02   -0.59654E-04    88   0.812E-02    0.593E-03
RMM:   2    -0.124024462944E+02   -0.58151E-05   -0.57182E-05    65   0.402E-02
     85 T=  1242. E= -.11701481E+02 F= -.12402446E+02 E0= -.12343613E+02  EK= 0.48145E+00 SP= 0.21E+00 SK= 0.66E-02
       N       E                     dE             d eps       ncg     rms          rms(c)
RMM:   1    -0.124020275405E+02    0.41294E-03   -0.97826E-04    86   0.927E-02    0.450E-03
RMM:   2    -0.124020371726E+02   -0.96320E-05   -0.93521E-05    70   0.476E-02
     86 T=  1232. E= -.11701471E+02 F= -.12402037E+02 E0= -.12343158E+02  EK= 0.47790E+00 SP= 0.22E+00 SK= 0.74E-02
       N       E                     dE             d eps       ncg     rms          rms(c)
RMM:   1    -0.123998921375E+02    0.21354E-02   -0.96327E-04    84   0.938E-02    0.393E-03
RMM:   2    -0.123999011269E+02   -0.89894E-05   -0.88435E-05    67   0.460E-02
     87 T=  1218. E= -.11701461E+02 F= -.12399901E+02 E0= -.12340756E+02  EK= 0.47247E+00 SP= 0.22E+00 SK= 0.83E-02
       N       E                     dE             d eps       ncg     rms          rms(c)
RMM:   1    -0.123963000326E+02    0.35921E-02   -0.71635E-04    86   0.875E-02    0.571E-03
RMM:   2    -0.123963070873E+02   -0.70547E-05   -0.69411E-05    66   0.426E-02
     88 T=  1200. E= -.11701443E+02 F= -.12396307E+02 E0= -.12336660E+02  EK= 0.46548E+00 SP= 0.22E+00 SK= 0.91E-02
       N       E                     dE             d eps       ncg     rms          rms(c)
RMM:   1    -0.123915616734E+02    0.47384E-02   -0.60809E-04    85   0.825E-02    0.516E-03
RMM:   2    -0.123915676229E+02   -0.59495E-05   -0.59186E-05    66   0.392E-02
     89 T=  1179. E= -.11701412E+02 F= -.12391568E+02 E0= -.12331189E+02  EK= 0.45725E+00 SP= 0.22E+00 SK= 0.99E-02
       N       E                     dE             d eps       ncg     rms          rms(c)
RMM:   1    -0.123859907641E+02    0.55709E-02   -0.62961E-04    86   0.831E-02    0.455E-03
RMM:   2    -0.123859975592E+02   -0.67951E-05   -0.67279E-05    65   0.409E-02
     90 T=  1156. E= -.11701378E+02 F= -.12385998E+02 E0= -.12324667E+02  EK= 0.44812E+00 SP= 0.23E+00 SK= 0.11E-01
       N       E                     dE             d eps       ncg     rms          rms(c)
RMM:   1    -0.123798701038E+02    0.61207E-02   -0.50267E-04    80   0.751E-02    0.480E-03
RMM:   2    -0.123798751634E+02   -0.50597E-05   -0.52439E-05    62   0.364E-02
     91 T=  1130. E= -.11701357E+02 F= -.12379875E+02 E0= -.12317408E+02  EK= 0.43838E+00 SP= 0.23E+00 SK= 0.11E-01
       N       E                     dE             d eps       ncg     rms          rms(c)
RMM:   1    -0.123733993463E+02    0.64708E-02   -0.81984E-04    82   0.867E-02    0.429E-03
RMM:   2    -0.123734073920E+02   -0.80458E-05   -0.80019E-05    66   0.423E-02
     92 T=  1104. E= -.11701351E+02 F= -.12373407E+02 E0= -.12309666E+02  EK= 0.42825E+00 SP= 0.23E+00 SK= 0.12E-01
       N       E                     dE             d eps       ncg     rms          rms(c)
RMM:   1    -0.123666924071E+02    0.67069E-02   -0.69447E-04    83   0.783E-02    0.507E-03
RMM:   2    -0.123666999516E+02   -0.75445E-05   -0.71823E-05    62   0.393E-02
     93 T=  1078. E= -.11701360E+02 F= -.12366700E+02 E0= -.12301603E+02  EK= 0.41786E+00 SP= 0.23E+00 SK= 0.13E-01
       N       E                     dE             d eps       ncg     rms          rms(c)
RMM:   1    -0.123597155552E+02    0.69769E-02   -0.88314E-04    82   0.888E-02    0.655E-03
RMM:   2    -0.123597237266E+02   -0.81714E-05   -0.83458E-05    64   0.440E-02
     94 T=  1050. E= -.11701376E+02 F= -.12359724E+02 E0= -.12293277E+02  EK= 0.40720E+00 SP= 0.24E+00 SK= 0.13E-01
       N       E                     dE             d eps       ncg     rms          rms(c)
RMM:   1    -0.123522890575E+02    0.74265E-02   -0.11163E-03    84   0.991E-02    0.543E-03
RMM:   2    -0.123523004883E+02   -0.11431E-04   -0.11435E-04    68   0.494E-02
     95 T=  1022. E= -.11701398E+02 F= -.12352300E+02 E0= -.12284581E+02  EK= 0.39613E+00 SP= 0.24E+00 SK= 0.13E-01
       N       E                     dE             d eps       ncg     rms          rms(c)
RMM:   1    -0.123441012213E+02    0.81878E-02   -0.64223E-04    82   0.807E-02    0.668E-03
RMM:   2    -0.123441084878E+02   -0.72664E-05   -0.71626E-05    63   0.399E-02
     96 T=   991. E= -.11701431E+02 F= -.12344108E+02 E0= -.12275280E+02  EK= 0.38434E+00 SP= 0.24E+00 SK= 0.14E-01
       N       E                     dE             d eps       ncg     rms          rms(c)
RMM:   1    -0.123346941222E+02    0.94071E-02   -0.38860E-04    80   0.737E-02    0.636E-03
RMM:   2    -0.123346987085E+02   -0.45863E-05   -0.45467E-05    62   0.349E-02
     97 T=   958. E= -.11701472E+02 F= -.12334699E+02 E0= -.12264976E+02  EK= 0.37140E+00 SP= 0.25E+00 SK= 0.14E-01
       N       E                     dE             d eps       ncg     rms          rms(c)
RMM:   1    -0.123235476457E+02    0.11146E-01   -0.48840E-04    79   0.741E-02    0.533E-03
RMM:   2    -0.123235530053E+02   -0.53596E-05   -0.52023E-05    63   0.354E-02
     98 T=   920. E= -.11701501E+02 F= -.12323553E+02 E0= -.12253241E+02  EK= 0.35684E+00 SP= 0.25E+00 SK= 0.14E-01
       N       E                     dE             d eps       ncg     rms          rms(c)
RMM:   1    -0.123101537247E+02    0.13394E-01   -0.51725E-04    82   0.737E-02    0.879E-03
RMM:   2    -0.123101590909E+02   -0.53662E-05   -0.51501E-05    64   0.354E-02
     99 T=   877. E= -.11701519E+02 F= -.12310159E+02 E0= -.12239572E+02  EK= 0.34020E+00 SP= 0.25E+00 SK= 0.14E-01
       N       E                     dE             d eps       ncg     rms          rms(c)
RMM:   1    -0.122940992819E+02    0.16054E-01   -0.46132E-04    85   0.734E-02    0.747E-03
RMM:   2    -0.122941036354E+02   -0.43535E-05   -0.48628E-05    62   0.361E-02
    100 T=   828. E= -.11701543E+02 F= -.12294104E+02 E0= -.12223565E+02  EK= 0.32107E+00 SP= 0.26E+00 SK= 0.14E-01
