 vasp.6.3.0 20Jan22 (build Jan 13 2025 16:42:03) complex                         
 executed on             LinuxGNU date 2025.06.24  19:35:28
 running on    4 total cores
 distrk:  each k-point on    4 cores,    1 groups
 distr:  one band on NCORE=   1 cores,    4 groups


--------------------------------------------------------------------------------------------------------


 INCAR:
   SYSTEM = Al, 4 atoms
   MAXMIX = 60
   NPAR = 4
   LCHARG = .FALSE.
   LWAVE = .FALSE.
   NWRITE = 0
   IALGO = 48
   ISYM = 0
   IBRION = 0
   NBLOCK = 5
   KBLOCK = 1
   SMASS = 1.0
   POTIM = 2.0
   ISIF = 1
   ISMEAR = -1
   TEBEG = 920
   SIGMA = 0.079276
   NSW = 100

 POTCAR:    PAW_PBE Al 04Jan2001                  
 POTCAR:    PAW_PBE Al 04Jan2001                  
  local pseudopotential read in
  partial core-charges read in
  partial kinetic energy density read in
  atomic valenz-charges read in
  non local Contribution for L=           0  read in
    real space projection operators read in
  non local Contribution for L=           0  read in
    real space projection operators read in
  non local Contribution for L=           1  read in
    real space projection operators read in
  non local Contribution for L=           1  read in
    real space projection operators read in
    PAW grid and wavefunctions read in

   number of l-projection  operators is LMAX  =           4
   number of lm-projection operators is LMMAX =           8

  PAW_PBE Al 04Jan2001                  :
 energy of atom  1       EATOM=  -53.5387
 kinetic energy error for atom=    0.0029 (will be added to EATOM!!)


 POSCAR: super cell
  positions in direct lattice
  velocities in cartesian coordinates

  Using predictor-coordinates on the file
 exchange correlation table for  LEXCH =        8
   RHO(1)=    0.500       N(1)  =     2000
   RHO(2)=  100.500       N(2)  =     4000



--------------------------------------------------------------------------------------------------------


 ion  position               nearest neighbor table
   1  0.021  0.975  0.904-   4 3.01   3 3.12   2 3.15   3 3.16   4 3.23
   2  0.463  0.011  0.975-   3 2.57   4 2.66   3 2.69   3 2.69   4 2.74   3 2.81   1 3.15   4 3.28
                             4 3.34
   3  0.326  0.486  0.500-   2 2.57   4 2.62   2 2.69   2 2.69   2 2.81   1 3.12   1 3.16
   4  0.690  0.528  0.621-   3 2.62   2 2.66   2 2.74   1 3.01   1 3.23   2 3.28   2 3.34


IMPORTANT INFORMATION: All symmetrisations will be switched off!
NOSYMM: (Re-)initialisation of all symmetry stuff for point group C_1.


----------------------------------------------------------------------------------------

                                     Primitive cell                                     

  volume of cell :      89.1401

  direct lattice vectors                    reciprocal lattice vectors
     7.091057987  0.000000000  0.000000000     0.141022680  0.000000000  0.000000000
     0.000000000  3.545528993  0.000000000     0.000000000  0.282045360  0.000000000
     0.000000000  0.000000000  3.545528993     0.000000000  0.000000000  0.282045360

  length of vectors
     7.091057987  3.545528993  3.545528993     0.141022680  0.282045360  0.282045360

  position of ions in fractional coordinates (direct lattice)
     0.021442643  0.974918190  0.904429400
     0.463377460  0.010910112  0.975098210
     0.325540240  0.485675530  0.499970680
     0.689639660  0.528496170  0.620501710

  ion indices of the primitive-cell ions
   primitive index   ion index
                 1           1
                 2           2
                 3           3
                 4           4

----------------------------------------------------------------------------------------



 KPOINTS:       K-Points                          

Automatic generation of k-mesh.
 Grid dimensions read from file:
 generate k-points for:    2    2    2

 Generating k-lattice:

  Cartesian coordinates                     Fractional coordinates (reciprocal lattice)
     0.070511340  0.000000000  0.000000000     0.500000000  0.000000000  0.000000000
     0.000000000  0.141022680  0.000000000     0.000000000  0.500000000  0.000000000
     0.000000000  0.000000000  0.141022680     0.000000000  0.000000000  0.500000000

  Length of vectors
     0.070511340  0.141022680  0.141022680

  Shift w.r.t. Gamma in fractional coordinates (k-lattice)
     0.500000000  0.500000000  0.500000000

 
 Subroutine IBZKPT returns following result:
 ===========================================
 
 Found      4 irreducible k-points:
 
 Following reciprocal coordinates:
            Coordinates               Weight
  0.250000  0.250000  0.250000      2.000000
  0.250000 -0.250000  0.250000      2.000000
  0.250000 -0.250000 -0.250000      2.000000
  0.250000  0.250000 -0.250000      2.000000
 
 Following cartesian coordinates:
            Coordinates               Weight
  0.035256  0.070511  0.070511      2.000000
  0.035256 -0.070511  0.070511      2.000000
  0.035256 -0.070511 -0.070511      2.000000
  0.035256  0.070511 -0.070511      2.000000
 


--------------------------------------------------------------------------------------------------------




 Dimension of arrays:
   k-points           NKPTS =      4   k-points in BZ     NKDIM =      4   number of bands    NBANDS=     12
   number of dos      NEDOS =    301   number of ions     NIONS =      4
   non local maximal  LDIM  =      4   non local SUM 2l+1 LMDIM =      8
   total plane-waves  NPLWV =   5488
   max r-space proj   IRMAX =      1   max aug-charges    IRDMAX=   2595
   dimension x,y,z NGX =    28 NGY =   14 NGZ =   14
   dimension x,y,z NGXF=    56 NGYF=   28 NGZF=   28
   support grid    NGXF=    56 NGYF=   28 NGZF=   28
   ions per type =               4
   NGX,Y,Z   is equivalent  to a cutoff of   6.56,  6.56,  6.56 a.u.
   NGXF,Y,Z  is equivalent  to a cutoff of  13.13, 13.13, 13.13 a.u.

 SYSTEM =  Al, 4 atoms                             
 POSCAR =  super cell                              

 Startparameter for this run:
   NWRITE =      0    write-flag & timer
   PREC   = normal    normal or accurate (medium, high low for compatibility)
   ISTART =      0    job   : 0-new  1-cont  2-samecut
   ICHARG =      2    charge: 1-file 2-atom 10-const
   ISPIN  =      1    spin polarized calculation?
   LNONCOLLINEAR =      F non collinear calculations
   LSORBIT =      F    spin-orbit coupling
   INIWAV =      1    electr: 0-lowe 1-rand  2-diag
   LASPH  =      F    aspherical Exc in radial PAW
 Electronic Relaxation 1
   ENCUT  =  240.3 eV  17.66 Ry    4.20 a.u.   8.96  4.48  4.48*2*pi/ulx,y,z
   ENINI  =  240.3     initial cutoff
   ENAUG  =  291.1 eV  augmentation charge cutoff
   NELM   =     60;   NELMIN=  2; NELMDL=  0     # of ELM steps 
   EDIFF  = 0.1E-03   stopping-criterion for ELM
   LREAL  =      F    real-space projection
   NLSPLINE    = F    spline interpolate recip. space projectors
   LCOMPAT=      F    compatible to vasp.4.4
   GGA_COMPAT  = T    GGA compatible to vasp.4.4-vasp.4.6
   LMAXPAW     = -100 max onsite density
   LMAXMIX     =    2 max onsite mixed and CHGCAR
   VOSKOWN=      0    Vosko Wilk Nusair interpolation
   ROPT   =    0.00000
 Ionic relaxation
   EDIFFG = 0.1E-02   stopping-criterion for IOM
   NSW    =    100    number of steps for IOM
   NBLOCK =      5;   KBLOCK =      1    inner block; outer block 
   IBRION =      0    ionic relax: 0-MD 1-quasi-New 2-CG
   NFREE  =      0    steps in history (QN), initial steepest desc. (CG)
   ISIF   =      1    stress and relaxation
   IWAVPR =     12    prediction:  0-non 1-charg 2-wave 3-comb
   ISYM   =      0    0-nonsym 1-usesym 2-fastsym
   LCORR  =      T    Harris-Foulkes like correction to forces

   POTIM  = 2.0000    time-step for ionic-motion
   TEIN   = 1441.5    initial temperature
   TEBEG  =  920.0;   TEEND  = 920.0 temperature during run
   SMASS  =   1.00    Nose mass-parameter (am)
   estimated Nose-frequenzy (Omega)   =  0.17E+14 period in steps = 0.19E+03 mass=   0.383E-27a.u.
   SCALEE = 1.0000    scale energy and forces
   NPACO  =    256;   APACO  = 10.0  distance and # of slots for P.C.
   PSTRESS=    0.0 pullay stress

  Mass of Ions in am
   POMASS =  26.98
  Ionic Valenz
   ZVAL   =   3.00
  Atomic Wigner-Seitz radii
   RWIGS  =  -1.00
  virtual crystal weights 
   VCA    =   1.00
   NELECT =      12.0000    total number of electrons
   NUPDOWN=      -1.0000    fix difference up-down

 DOS related values:
   EMIN   =  10.00;   EMAX   =-10.00  energy-range for DOS
   EFERMI =   0.00
   ISMEAR =    -1;   SIGMA  =   0.08  broadening in eV -4-tet -1-fermi 0-gaus

 Electronic relaxation 2 (details)
   IALGO  =     48    algorithm
   LDIAG  =      T    sub-space diagonalisation (order eigenvalues)
   LSUBROT=      F    optimize rotation matrix (better conditioning)
   TURBO    =      0    0=normal 1=particle mesh
   IRESTART =      0    0=no restart 2=restart with 2 vectors
   NREBOOT  =      0    no. of reboots
   NMIN     =      0    reboot dimension
   EREF     =   0.00    reference energy to select bands
   IMIX   =      4    mixing-type and parameters
     AMIX     =   0.40;   BMIX     =  1.00
     AMIX_MAG =   1.60;   BMIX_MAG =  1.00
     AMIN     =   0.10
     WC   =   100.;   INIMIX=   1;  MIXPRE=   1;  MAXMIX=  60

 Intra band minimization:
   WEIMIN = 0.0010     energy-eigenvalue tresh-hold
   EBREAK =  0.21E-05  absolut break condition
   DEPER  =   0.30     relativ break condition  

   TIME   =   0.40     timestep for ELM

  volume/ion in A,a.u.               =      22.29       150.39
  Fermi-wavevector in a.u.,A,eV,Ry     =   0.839030  1.585537  9.578114  0.703972
  Thomas-Fermi vector in A             =   1.953182

 Write flags
   LWAVE        =      F    write WAVECAR
   LDOWNSAMPLE  =      F    k-point downsampling of WAVECAR
   LCHARG       =      F    write CHGCAR
   LVTOT        =      F    write LOCPOT, total local potential
   LVHAR        =      F    write LOCPOT, Hartree potential only
   LELF         =      F    write electronic localiz. function (ELF)
   LORBIT       =      0    0 simple, 1 ext, 2 COOP (PROOUT), +10 PAW based schemes


 Dipole corrections
   LMONO  =      F    monopole corrections only (constant potential shift)
   LDIPOL =      F    correct potential (dipole corrections)
   IDIPOL =      0    1-x, 2-y, 3-z, 4-all directions 
   EPSILON=  1.0000000 bulk dielectric constant

 Exchange correlation treatment:
   GGA     =    --    GGA type
   LEXCH   =     8    internal setting for exchange type
   LIBXC   =     F    Libxc                    
   VOSKOWN =     0    Vosko Wilk Nusair interpolation
   LHFCALC =     F    Hartree Fock is set to
   LHFONE  =     F    Hartree Fock one center treatment
   AEXX    =    0.0000 exact exchange contribution

 Linear response parameters
   LEPSILON=     F    determine dielectric tensor
   LRPA    =     F    only Hartree local field effects (RPA)
   LNABLA  =     F    use nabla operator in PAW spheres
   LVEL    =     F    velocity operator in full k-point grid
   CSHIFT  =0.1000    complex shift for real part using Kramers Kronig
   OMEGAMAX=  -1.0    maximum frequency
   DEG_THRESHOLD= 0.2000000E-02 threshold for treating states as degnerate
   RTIME   =   -0.100 relaxation time in fs
  (WPLASMAI=    0.000 imaginary part of plasma frequency in eV, 0.658/RTIME)
   DFIELD  = 0.0000000 0.0000000 0.0000000 field for delta impulse in time

  Optional k-point grid parameters
   LKPOINTS_OPT  =     F    use optional k-point grid
   KPOINTS_OPT_MODE=     1    mode for optional k-point grid

 Orbital magnetization related:
   ORBITALMAG=     F  switch on orbital magnetization
   LCHIMAG   =     F  perturbation theory with respect to B field
   DQ        =  0.001000  dq finite difference perturbation B field
   LLRAUG    =     F  two centre corrections for induced B field



--------------------------------------------------------------------------------------------------------


 molecular dynamics for ions
   using nose mass (canonical ensemble)
 charge density and potential will be updated during run
 non-spin polarized calculation
 RMM-DIIS sequential band-by-band
 perform sub-space diagonalisation
    before iterative eigenvector-optimisation
 modified Broyden-mixing scheme, WC =      100.0
 initial mixing is a Kerker type mixing with AMIX =  0.4000 and BMIX =      1.0000
 Hartree-type preconditioning will be used
 using additional bands            6
 reciprocal scheme for non local part
 use partial core corrections
 calculate Harris-corrections to forces   (improved forces if not selfconsistent)
 use gradient corrections 
 use of overlap-Matrix (Vanderbilt PP)
 Fermi-smearing in eV        SIGMA  =   0.08


--------------------------------------------------------------------------------------------------------


  energy-cutoff  :      240.30
  volume of cell :       89.14
      direct lattice vectors                 reciprocal lattice vectors
     7.091057987  0.000000000  0.000000000     0.141022680  0.000000000  0.000000000
     0.000000000  3.545528993  0.000000000     0.000000000  0.282045360  0.000000000
     0.000000000  0.000000000  3.545528993     0.000000000  0.000000000  0.282045360

  length of vectors
     7.091057987  3.545528993  3.545528993     0.141022680  0.282045360  0.282045360



 k-points in units of 2pi/SCALE and weight:       K-Points                          
   0.03525567  0.07051134  0.07051134       0.250
   0.03525567 -0.07051134  0.07051134       0.250
   0.03525567 -0.07051134 -0.07051134       0.250
   0.03525567  0.07051134 -0.07051134       0.250

 k-points in reciprocal lattice and weights:       K-Points                          
   0.25000000  0.25000000  0.25000000       0.250
   0.25000000 -0.25000000  0.25000000       0.250
   0.25000000 -0.25000000 -0.25000000       0.250
   0.25000000  0.25000000 -0.25000000       0.250

 position of ions in fractional coordinates (direct lattice) 
   0.02144264  0.97491819  0.90442940
   0.46337746  0.01091011  0.97509821
   0.32554024  0.48567553  0.49997068
   0.68963966  0.52849617  0.62050171

 position of ions in cartesian coordinates  (Angst):
   0.15205102  3.45660071  3.20668066
   3.28583644  0.03868212  3.45723897
   2.30842472  1.72197667  1.77266054
   4.89027482  1.87379849  2.20000680



--------------------------------------------------------------------------------------------------------


 k-point   1 :   0.2500 0.2500 0.2500  plane waves:     756
 k-point   2 :   0.2500-0.2500 0.2500  plane waves:     756
 k-point   3 :   0.2500-0.2500-0.2500  plane waves:     756
 k-point   4 :   0.2500 0.2500-0.2500  plane waves:     756

 maximum and minimum number of plane-waves per node :       756      756

 maximum number of plane-waves:       756
 maximum index in each direction: 
   IXMAX=    8   IYMAX=    4   IZMAX=    4
   IXMIN=   -9   IYMIN=   -4   IZMIN=   -4


 serial   3D FFT for wavefunctions
 parallel 3D FFT for charge:
    minimum data exchange during FFTs selected (reduces bandwidth)


 total amount of memory used by VASP MPI-rank0    31599. kBytes
=======================================================================

   base      :      30000. kBytes
   nonl-proj :        241. kBytes
   fftplans  :        418. kBytes
   grid      :        777. kBytes
   one-center:         12. kBytes
   wavefun   :        151. kBytes

     INWAV:  cpu time      0.0000: real time      0.0000
 Broyden mixing: mesh for mixing (old mesh)
   NGX = 17   NGY =  9   NGZ =  9
  (NGX  = 56   NGY  = 28   NGZ  = 28)
  gives a total of   1377 points

 initial charge density was supplied:
 charge density of overlapping atoms calculated
 number of electron      12.0000000 magnetization 
 keeping initial charge density in first step


--------------------------------------------------------------------------------------------------------


 Maximum index for augmentation-charges          594 (set IRDMAX)


--------------------------------------------------------------------------------------------------------


 First call to EWALD:  gamma=   0.397
 Maximum number of real-space cells 2x 3x 3
 Maximum number of reciprocal cells 4x 2x 2

    FEWALD:  cpu time      0.0003: real time      0.0003


--------------------------------------- Iteration      1(   1)  ---------------------------------------


    POTLOK:  cpu time      0.0038: real time      0.0038
    SETDIJ:  cpu time      0.0006: real time      0.0006
    EDDIAG:  cpu time      0.0029: real time      0.0029
  RMM-DIIS:  cpu time      0.0035: real time      0.0035
    ORTHCH:  cpu time      0.0003: real time      0.0003
       DOS:  cpu time      0.0001: real time      0.0001
    --------------------------------------------
      LOOP:  cpu time      0.0111: real time      0.0111

 eigenvalue-minimisations  :    48
 total energy-change (2. order) : 0.1759141E+02  (-0.1472454E+03)
 number of electron      12.0000000 magnetization 
 augmentation part       12.0000000 magnetization 

 Free energy of the ion-electron system (eV)
  ---------------------------------------------------
  alpha Z        PSCENC =        -0.60288196
  Ewald energy   TEWEN  =      -250.60123196
  -Hartree energ DENC   =       -11.29252684
  -exchange      EXHF   =         0.00000000
  -V(xc)+E(xc)   XCENC  =      -106.68117382
  PAW double counting   =       264.80062850     -136.98248303
  entropy T*S    EENTRO =        -0.04458855
  eigenvalues    EBANDS =        44.85245219
  atomic energy  EATOM  =       214.14321246
  Solvation  Ediel_sol  =         0.00000000
  ---------------------------------------------------
  free energy    TOTEN  =        17.59140699 eV

  energy without entropy =       17.63599554  energy(sigma->0) =       17.61370126


--------------------------------------------------------------------------------------------------------




--------------------------------------- Iteration      1(   2)  ---------------------------------------


    EDDIAG:  cpu time      0.0026: real time      0.0026
  RMM-DIIS:  cpu time      0.0034: real time      0.0034
    ORTHCH:  cpu time      0.0003: real time      0.0003
       DOS:  cpu time      0.0001: real time      0.0001
    --------------------------------------------
      LOOP:  cpu time      0.0063: real time      0.0063

 eigenvalue-minimisations  :    48
 total energy-change (2. order) :-0.2479520E+02  (-0.2358761E+02)
 number of electron      12.0000000 magnetization 
 augmentation part       12.0000000 magnetization 

 Free energy of the ion-electron system (eV)
  ---------------------------------------------------
  alpha Z        PSCENC =        -0.60288196
  Ewald energy   TEWEN  =      -250.60123196
  -Hartree energ DENC   =       -11.29252684
  -exchange      EXHF   =         0.00000000
  -V(xc)+E(xc)   XCENC  =      -106.68117382
  PAW double counting   =       264.80062850     -136.98248303
  entropy T*S    EENTRO =        -0.06437970
  eigenvalues    EBANDS =        20.07704584
  atomic energy  EATOM  =       214.14321246
  Solvation  Ediel_sol  =         0.00000000
  ---------------------------------------------------
  free energy    TOTEN  =        -7.20379052 eV

  energy without entropy =       -7.13941082  energy(sigma->0) =       -7.17160067


--------------------------------------------------------------------------------------------------------




--------------------------------------- Iteration      1(   3)  ---------------------------------------


    EDDIAG:  cpu time      0.0025: real time      0.0025
  RMM-DIIS:  cpu time      0.0035: real time      0.0035
    ORTHCH:  cpu time      0.0003: real time      0.0003
       DOS:  cpu time      0.0000: real time      0.0000
    --------------------------------------------
      LOOP:  cpu time      0.0063: real time      0.0063

 eigenvalue-minimisations  :    48
 total energy-change (2. order) :-0.4860275E+01  (-0.4181891E+01)
 number of electron      12.0000000 magnetization 
 augmentation part       12.0000000 magnetization 

 Free energy of the ion-electron system (eV)
  ---------------------------------------------------
  alpha Z        PSCENC =        -0.60288196
  Ewald energy   TEWEN  =      -250.60123196
  -Hartree energ DENC   =       -11.29252684
  -exchange      EXHF   =         0.00000000
  -V(xc)+E(xc)   XCENC  =      -106.68117382
  PAW double counting   =       264.80062850     -136.98248303
  entropy T*S    EENTRO =        -0.07868536
  eigenvalues    EBANDS =        15.23107657
  atomic energy  EATOM  =       214.14321246
  Solvation  Ediel_sol  =         0.00000000
  ---------------------------------------------------
  free energy    TOTEN  =       -12.06406545 eV

  energy without entropy =      -11.98538008  energy(sigma->0) =      -12.02472277


--------------------------------------------------------------------------------------------------------




--------------------------------------- Iteration      1(   4)  ---------------------------------------


    EDDIAG:  cpu time      0.0026: real time      0.0026
  RMM-DIIS:  cpu time      0.0034: real time      0.0034
    ORTHCH:  cpu time      0.0003: real time      0.0003
       DOS:  cpu time      0.0000: real time      0.0000
    --------------------------------------------
      LOOP:  cpu time      0.0063: real time      0.0063

 eigenvalue-minimisations  :    48
 total energy-change (2. order) :-0.8801452E+00  (-0.5523186E+00)
 number of electron      12.0000000 magnetization 
 augmentation part       12.0000000 magnetization 

 Free energy of the ion-electron system (eV)
  ---------------------------------------------------
  alpha Z        PSCENC =        -0.60288196
  Ewald energy   TEWEN  =      -250.60123196
  -Hartree energ DENC   =       -11.29252684
  -exchange      EXHF   =         0.00000000
  -V(xc)+E(xc)   XCENC  =      -106.68117382
  PAW double counting   =       264.80062850     -136.98248303
  entropy T*S    EENTRO =        -0.05734765
  eigenvalues    EBANDS =        14.32959362
  atomic energy  EATOM  =       214.14321246
  Solvation  Ediel_sol  =         0.00000000
  ---------------------------------------------------
  free energy    TOTEN  =       -12.94421069 eV

  energy without entropy =      -12.88686303  energy(sigma->0) =      -12.91553686


--------------------------------------------------------------------------------------------------------




--------------------------------------- Iteration      1(   5)  ---------------------------------------


    EDDIAG:  cpu time      0.0024: real time      0.0024
  RMM-DIIS:  cpu time      0.0035: real time      0.0035
    ORTHCH:  cpu time      0.0003: real time      0.0003
       DOS:  cpu time      0.0000: real time      0.0000
    --------------------------------------------
      LOOP:  cpu time      0.0062: real time      0.0062

 eigenvalue-minimisations  :    48
 total energy-change (2. order) :-0.1501861E+00  (-0.1095969E+00)
 number of electron      12.0000000 magnetization 
 augmentation part       12.0000000 magnetization 

 Free energy of the ion-electron system (eV)
  ---------------------------------------------------
  alpha Z        PSCENC =        -0.60288196
  Ewald energy   TEWEN  =      -250.60123196
  -Hartree energ DENC   =       -11.29252684
  -exchange      EXHF   =         0.00000000
  -V(xc)+E(xc)   XCENC  =      -106.68117382
  PAW double counting   =       264.80062850     -136.98248303
  entropy T*S    EENTRO =        -0.06220196
  eigenvalues    EBANDS =        14.18426187
  atomic energy  EATOM  =       214.14321246
  Solvation  Ediel_sol  =         0.00000000
  ---------------------------------------------------
  free energy    TOTEN  =       -13.09439674 eV

  energy without entropy =      -13.03219478  energy(sigma->0) =      -13.06329576


--------------------------------------------------------------------------------------------------------




--------------------------------------- Iteration      1(   6)  ---------------------------------------


    EDDIAG:  cpu time      0.0025: real time      0.0025
  RMM-DIIS:  cpu time      0.0034: real time      0.0034
    ORTHCH:  cpu time      0.0004: real time      0.0004
       DOS:  cpu time      0.0001: real time      0.0001
    --------------------------------------------
      LOOP:  cpu time      0.0064: real time      0.0064

 eigenvalue-minimisations  :    48
 total energy-change (2. order) :-0.3508954E-01  (-0.2517153E-01)
 number of electron      12.0000000 magnetization 
 augmentation part       12.0000000 magnetization 

 Free energy of the ion-electron system (eV)
  ---------------------------------------------------
  alpha Z        PSCENC =        -0.60288196
  Ewald energy   TEWEN  =      -250.60123196
  -Hartree energ DENC   =       -11.29252684
  -exchange      EXHF   =         0.00000000
  -V(xc)+E(xc)   XCENC  =      -106.68117382
  PAW double counting   =       264.80062850     -136.98248303
  entropy T*S    EENTRO =        -0.06628722
  eigenvalues    EBANDS =        14.15325759
  atomic energy  EATOM  =       214.14321246
  Solvation  Ediel_sol  =         0.00000000
  ---------------------------------------------------
  free energy    TOTEN  =       -13.12948628 eV

  energy without entropy =      -13.06319906  energy(sigma->0) =      -13.09634267


--------------------------------------------------------------------------------------------------------




--------------------------------------- Iteration      1(   7)  ---------------------------------------


    EDDIAG:  cpu time      0.0025: real time      0.0025
  RMM-DIIS:  cpu time      0.0034: real time      0.0034
    ORTHCH:  cpu time      0.0003: real time      0.0003
       DOS:  cpu time      0.0000: real time      0.0000
    --------------------------------------------
      LOOP:  cpu time      0.0062: real time      0.0062

 eigenvalue-minimisations  :    48
 total energy-change (2. order) :-0.9132341E-02  (-0.6458374E-02)
 number of electron      12.0000000 magnetization 
 augmentation part       12.0000000 magnetization 

 Free energy of the ion-electron system (eV)
  ---------------------------------------------------
  alpha Z        PSCENC =        -0.60288196
  Ewald energy   TEWEN  =      -250.60123196
  -Hartree energ DENC   =       -11.29252684
  -exchange      EXHF   =         0.00000000
  -V(xc)+E(xc)   XCENC  =      -106.68117382
  PAW double counting   =       264.80062850     -136.98248303
  entropy T*S    EENTRO =        -0.07142821
  eigenvalues    EBANDS =        14.14926624
  atomic energy  EATOM  =       214.14321246
  Solvation  Ediel_sol  =         0.00000000
  ---------------------------------------------------
  free energy    TOTEN  =       -13.13861862 eV

  energy without entropy =      -13.06719042  energy(sigma->0) =      -13.10290452


--------------------------------------------------------------------------------------------------------




--------------------------------------- Iteration      1(   8)  ---------------------------------------


    EDDIAG:  cpu time      0.0025: real time      0.0025
  RMM-DIIS:  cpu time      0.0036: real time      0.0036
    ORTHCH:  cpu time      0.0003: real time      0.0003
       DOS:  cpu time      0.0000: real time      0.0000
    --------------------------------------------
      LOOP:  cpu time      0.0064: real time      0.0064

 eigenvalue-minimisations  :    48
 total energy-change (2. order) :-0.2495043E-02  (-0.1794098E-02)
 number of electron      12.0000000 magnetization 
 augmentation part       12.0000000 magnetization 

 Free energy of the ion-electron system (eV)
  ---------------------------------------------------
  alpha Z        PSCENC =        -0.60288196
  Ewald energy   TEWEN  =      -250.60123196
  -Hartree energ DENC   =       -11.29252684
  -exchange      EXHF   =         0.00000000
  -V(xc)+E(xc)   XCENC  =      -106.68117382
  PAW double counting   =       264.80062850     -136.98248303
  entropy T*S    EENTRO =        -0.07338344
  eigenvalues    EBANDS =        14.14872643
  atomic energy  EATOM  =       214.14321246
  Solvation  Ediel_sol  =         0.00000000
  ---------------------------------------------------
  free energy    TOTEN  =       -13.14111367 eV

  energy without entropy =      -13.06773022  energy(sigma->0) =      -13.10442194


--------------------------------------------------------------------------------------------------------




--------------------------------------- Iteration      1(   9)  ---------------------------------------


    EDDIAG:  cpu time      0.0023: real time      0.0023
  RMM-DIIS:  cpu time      0.0057: real time      0.0057
    ORTHCH:  cpu time      0.0003: real time      0.0003
       DOS:  cpu time      0.0001: real time      0.0001
    --------------------------------------------
      LOOP:  cpu time      0.0083: real time      0.0083

 eigenvalue-minimisations  :    95
 total energy-change (2. order) :-0.4900128E-03  (-0.4216709E-03)
 number of electron      12.0000000 magnetization 
 augmentation part       12.0000000 magnetization 

 Free energy of the ion-electron system (eV)
  ---------------------------------------------------
  alpha Z        PSCENC =        -0.60288196
  Ewald energy   TEWEN  =      -250.60123196
  -Hartree energ DENC   =       -11.29252684
  -exchange      EXHF   =         0.00000000
  -V(xc)+E(xc)   XCENC  =      -106.68117382
  PAW double counting   =       264.80062850     -136.98248303
  entropy T*S    EENTRO =        -0.07375813
  eigenvalues    EBANDS =        14.14861111
  atomic energy  EATOM  =       214.14321246
  Solvation  Ediel_sol  =         0.00000000
  ---------------------------------------------------
  free energy    TOTEN  =       -13.14160368 eV

  energy without entropy =      -13.06784555  energy(sigma->0) =      -13.10472461


--------------------------------------------------------------------------------------------------------




--------------------------------------- Iteration      1(  10)  ---------------------------------------


    EDDIAG:  cpu time      0.0024: real time      0.0024
  RMM-DIIS:  cpu time      0.0059: real time      0.0059
    ORTHCH:  cpu time      0.0003: real time      0.0003
       DOS:  cpu time      0.0000: real time      0.0000
    --------------------------------------------
      LOOP:  cpu time      0.0087: real time      0.0087

 eigenvalue-minimisations  :    87
 total energy-change (2. order) :-0.1348239E-03  (-0.1280985E-03)
 number of electron      12.0000000 magnetization 
 augmentation part       12.0000000 magnetization 

 Free energy of the ion-electron system (eV)
  ---------------------------------------------------
  alpha Z        PSCENC =        -0.60288196
  Ewald energy   TEWEN  =      -250.60123196
  -Hartree energ DENC   =       -11.29252684
  -exchange      EXHF   =         0.00000000
  -V(xc)+E(xc)   XCENC  =      -106.68117382
  PAW double counting   =       264.80062850     -136.98248303
  entropy T*S    EENTRO =        -0.07385432
  eigenvalues    EBANDS =        14.14857247
  atomic energy  EATOM  =       214.14321246
  Solvation  Ediel_sol  =         0.00000000
  ---------------------------------------------------
  free energy    TOTEN  =       -13.14173850 eV

  energy without entropy =      -13.06788418  energy(sigma->0) =      -13.10481134


--------------------------------------------------------------------------------------------------------




--------------------------------------- Iteration      1(  11)  ---------------------------------------


    EDDIAG:  cpu time      0.0025: real time      0.0025
  RMM-DIIS:  cpu time      0.0048: real time      0.0048
    ORTHCH:  cpu time      0.0003: real time      0.0003
       DOS:  cpu time      0.0001: real time      0.0001
    --------------------------------------------
      LOOP:  cpu time      0.0076: real time      0.0076

 eigenvalue-minimisations  :    74
 total energy-change (2. order) :-0.2008593E-04  (-0.1832951E-04)
 number of electron      12.0000000 magnetization 
 augmentation part       12.0000000 magnetization 

 Free energy of the ion-electron system (eV)
  ---------------------------------------------------
  alpha Z        PSCENC =        -0.60288196
  Ewald energy   TEWEN  =      -250.60123196
  -Hartree energ DENC   =       -11.29252684
  -exchange      EXHF   =         0.00000000
  -V(xc)+E(xc)   XCENC  =      -106.68117382
  PAW double counting   =       264.80062850     -136.98248303
  entropy T*S    EENTRO =        -0.07386808
  eigenvalues    EBANDS =        14.14856614
  atomic energy  EATOM  =       214.14321246
  Solvation  Ediel_sol  =         0.00000000
  ---------------------------------------------------
  free energy    TOTEN  =       -13.14175859 eV

  energy without entropy =      -13.06789051  energy(sigma->0) =      -13.10482455


--------------------------------------------------------------------------------------------------------




--------------------------------------- Iteration      1(  12)  ---------------------------------------


    EDDIAG:  cpu time      0.0024: real time      0.0024
  RMM-DIIS:  cpu time      0.0047: real time      0.0047
    ORTHCH:  cpu time      0.0003: real time      0.0003
       DOS:  cpu time      0.0000: real time      0.0000
    CHARGE:  cpu time      0.0014: real time      0.0014
    MIXING:  cpu time      0.0001: real time      0.0001
    --------------------------------------------
      LOOP:  cpu time      0.0089: real time      0.0089

 eigenvalue-minimisations  :    69
 total energy-change (2. order) :-0.5234539E-05  (-0.5175045E-05)
 number of electron      12.0000001 magnetization 
 augmentation part       -0.1877228 magnetization 

 Broyden mixing:
  rms(total) = 0.33162E+00    rms(broyden)= 0.33161E+00
  rms(prec ) = 0.90248E+00
  weight for this iteration     100.00

 Free energy of the ion-electron system (eV)
  ---------------------------------------------------
  alpha Z        PSCENC =        -0.60288196
  Ewald energy   TEWEN  =      -250.60123196
  -Hartree energ DENC   =       -11.29252684
  -exchange      EXHF   =         0.00000000
  -V(xc)+E(xc)   XCENC  =      -106.68117382
  PAW double counting   =       264.80062850     -136.98248303
  entropy T*S    EENTRO =        -0.07387180
  eigenvalues    EBANDS =        14.14856463
  atomic energy  EATOM  =       214.14321246
  Solvation  Ediel_sol  =         0.00000000
  ---------------------------------------------------
  free energy    TOTEN  =       -13.14176382 eV

  energy without entropy =      -13.06789203  energy(sigma->0) =      -13.10482792


--------------------------------------------------------------------------------------------------------




--------------------------------------- Iteration      1(  13)  ---------------------------------------


    POTLOK:  cpu time      0.0033: real time      0.0033
    SETDIJ:  cpu time      0.0006: real time      0.0006
    EDDIAG:  cpu time      0.0025: real time      0.0025
  RMM-DIIS:  cpu time      0.0086: real time      0.0086
    ORTHCH:  cpu time      0.0003: real time      0.0003
       DOS:  cpu time      0.0001: real time      0.0001
    CHARGE:  cpu time      0.0011: real time      0.0011
    MIXING:  cpu time      0.0001: real time      0.0001
    --------------------------------------------
      LOOP:  cpu time      0.0166: real time      0.0166

 eigenvalue-minimisations  :   143
 total energy-change (2. order) : 0.8102672E+00  (-0.1042569E+00)
 number of electron      12.0000001 magnetization 
 augmentation part       -0.1893167 magnetization 

 Broyden mixing:
  rms(total) = 0.15471E+00    rms(broyden)= 0.15470E+00
  rms(prec ) = 0.24024E+00
  weight for this iteration     100.00

 eigenvalues of (default mixing * dielectric matrix)
  average eigenvalue GAMMA=   1.5723
  1.5723

 Free energy of the ion-electron system (eV)
  ---------------------------------------------------
  alpha Z        PSCENC =        -0.60288196
  Ewald energy   TEWEN  =      -250.60123196
  -Hartree energ DENC   =       -13.47325447
  -exchange      EXHF   =         0.00000000
  -V(xc)+E(xc)   XCENC  =      -106.53696817
  PAW double counting   =       383.45709773     -255.67106556
  entropy T*S    EENTRO =        -0.07898843
  eigenvalues    EBANDS =        17.03258372
  atomic energy  EATOM  =       214.14321246
  Solvation  Ediel_sol  =         0.00000000
  ---------------------------------------------------
  free energy    TOTEN  =       -12.33149664 eV

  energy without entropy =      -12.25250821  energy(sigma->0) =      -12.29200243


--------------------------------------------------------------------------------------------------------




--------------------------------------- Iteration      1(  14)  ---------------------------------------


    POTLOK:  cpu time      0.0033: real time      0.0033
    SETDIJ:  cpu time      0.0006: real time      0.0006
    EDDIAG:  cpu time      0.0025: real time      0.0025
  RMM-DIIS:  cpu time      0.0071: real time      0.0071
    ORTHCH:  cpu time      0.0005: real time      0.0005
       DOS:  cpu time      0.0001: real time      0.0001
    CHARGE:  cpu time      0.0011: real time      0.0012
    MIXING:  cpu time      0.0001: real time      0.0001
    --------------------------------------------
      LOOP:  cpu time      0.0153: real time      0.0153

 eigenvalue-minimisations  :   116
 total energy-change (2. order) : 0.4210949E-01  (-0.5551667E-02)
 number of electron      12.0000001 magnetization 
 augmentation part       -0.1902204 magnetization 

 Broyden mixing:
  rms(total) = 0.73961E-01    rms(broyden)= 0.73961E-01
  rms(prec ) = 0.10511E+00
  weight for this iteration     100.00

 eigenvalues of (default mixing * dielectric matrix)
  average eigenvalue GAMMA=   1.6404
  1.1049  2.1759

 Free energy of the ion-electron system (eV)
  ---------------------------------------------------
  alpha Z        PSCENC =        -0.60288196
  Ewald energy   TEWEN  =      -250.60123196
  -Hartree energ DENC   =       -13.91507243
  -exchange      EXHF   =         0.00000000
  -V(xc)+E(xc)   XCENC  =      -106.44989944
  PAW double counting   =       483.39646761     -355.62672261
  entropy T*S    EENTRO =        -0.08044885
  eigenvalues    EBANDS =        17.44719004
  atomic energy  EATOM  =       214.14321246
  Solvation  Ediel_sol  =         0.00000000
  ---------------------------------------------------
  free energy    TOTEN  =       -12.28938715 eV

  energy without entropy =      -12.20893829  energy(sigma->0) =      -12.24916272


--------------------------------------------------------------------------------------------------------




--------------------------------------- Iteration      1(  15)  ---------------------------------------


    POTLOK:  cpu time      0.0034: real time      0.0034
    SETDIJ:  cpu time      0.0006: real time      0.0006
    EDDIAG:  cpu time      0.0024: real time      0.0024
  RMM-DIIS:  cpu time      0.0057: real time      0.0057
    ORTHCH:  cpu time      0.0002: real time      0.0002
       DOS:  cpu time      0.0001: real time      0.0001
    CHARGE:  cpu time      0.0011: real time      0.0011
    MIXING:  cpu time      0.0001: real time      0.0001
    --------------------------------------------
      LOOP:  cpu time      0.0137: real time      0.0137

 eigenvalue-minimisations  :    96
 total energy-change (2. order) : 0.7123702E-02  (-0.8490670E-03)
 number of electron      12.0000001 magnetization 
 augmentation part       -0.1914415 magnetization 

 Broyden mixing:
  rms(total) = 0.16927E-01    rms(broyden)= 0.16926E-01
  rms(prec ) = 0.28649E-01
  weight for this iteration     100.00

 eigenvalues of (default mixing * dielectric matrix)
  average eigenvalue GAMMA=   1.5262
  2.2523  1.1631  1.1631

 Free energy of the ion-electron system (eV)
  ---------------------------------------------------
  alpha Z        PSCENC =        -0.60288196
  Ewald energy   TEWEN  =      -250.60123196
  -Hartree energ DENC   =       -13.96536651
  -exchange      EXHF   =         0.00000000
  -V(xc)+E(xc)   XCENC  =      -106.37787941
  PAW double counting   =       569.56031147     -441.80336529
  entropy T*S    EENTRO =        -0.08072610
  eigenvalues    EBANDS =        17.44566386
  atomic energy  EATOM  =       214.14321246
  Solvation  Ediel_sol  =         0.00000000
  ---------------------------------------------------
  free energy    TOTEN  =       -12.28226345 eV

  energy without entropy =      -12.20153735  energy(sigma->0) =      -12.24190040


--------------------------------------------------------------------------------------------------------




--------------------------------------- Iteration      1(  16)  ---------------------------------------


    POTLOK:  cpu time      0.0032: real time      0.0032
    SETDIJ:  cpu time      0.0006: real time      0.0006
    EDDIAG:  cpu time      0.0025: real time      0.0025
  RMM-DIIS:  cpu time      0.0055: real time      0.0055
    ORTHCH:  cpu time      0.0003: real time      0.0003
       DOS:  cpu time      0.0001: real time      0.0001
    CHARGE:  cpu time      0.0013: real time      0.0013
    MIXING:  cpu time      0.0001: real time      0.0001
    --------------------------------------------
      LOOP:  cpu time      0.0135: real time      0.0135

 eigenvalue-minimisations  :    96
 total energy-change (2. order) : 0.4004069E-03  (-0.1045273E-03)
 number of electron      12.0000001 magnetization 
 augmentation part       -0.1919064 magnetization 

 Broyden mixing:
  rms(total) = 0.83008E-02    rms(broyden)= 0.83007E-02
  rms(prec ) = 0.12815E-01
  weight for this iteration     100.00

 eigenvalues of (default mixing * dielectric matrix)
  average eigenvalue GAMMA=   1.5703
  2.1563  2.1563  0.8669  1.1018

 Free energy of the ion-electron system (eV)
  ---------------------------------------------------
  alpha Z        PSCENC =        -0.60288196
  Ewald energy   TEWEN  =      -250.60123196
  -Hartree energ DENC   =       -13.98485460
  -exchange      EXHF   =         0.00000000
  -V(xc)+E(xc)   XCENC  =      -106.35781864
  PAW double counting   =       587.34618287     -459.59355705
  entropy T*S    EENTRO =        -0.08040581
  eigenvalues    EBANDS =        17.44949166
  atomic energy  EATOM  =       214.14321246
  Solvation  Ediel_sol  =         0.00000000
  ---------------------------------------------------
  free energy    TOTEN  =       -12.28186304 eV

  energy without entropy =      -12.20145722  energy(sigma->0) =      -12.24166013


--------------------------------------------------------------------------------------------------------




--------------------------------------- Iteration      1(  17)  ---------------------------------------


    POTLOK:  cpu time      0.0033: real time      0.0033
    SETDIJ:  cpu time      0.0006: real time      0.0006
    EDDIAG:  cpu time      0.0025: real time      0.0025
  RMM-DIIS:  cpu time      0.0049: real time      0.0049
    ORTHCH:  cpu time      0.0003: real time      0.0003
       DOS:  cpu time      0.0001: real time      0.0001
    --------------------------------------------
      LOOP:  cpu time      0.0116: real time      0.0116

 eigenvalue-minimisations  :    69
 total energy-change (2. order) : 0.9948169E-04  (-0.1933705E-04)
 number of electron      12.0000001 magnetization 
 augmentation part       -0.1919064 magnetization 

 Free energy of the ion-electron system (eV)
  ---------------------------------------------------
  alpha Z        PSCENC =        -0.60288196
  Ewald energy   TEWEN  =      -250.60123196
  -Hartree energ DENC   =       -13.97760520
  -exchange      EXHF   =         0.00000000
  -V(xc)+E(xc)   XCENC  =      -106.34908334
  PAW double counting   =       586.17084839     -458.42116191
  entropy T*S    EENTRO =        -0.08010121
  eigenvalues    EBANDS =        17.43624118
  atomic energy  EATOM  =       214.14321246
  Solvation  Ediel_sol  =         0.00000000
  ---------------------------------------------------
  free energy    TOTEN  =       -12.28176356 eV

  energy without entropy =      -12.20166234  energy(sigma->0) =      -12.24171295


--------------------------------------------------------------------------------------------------------




 average (electrostatic) potential at core
  the test charge radii are     1.0406
  (the norm of the test charge is              1.0000)
       1 -76.0566       2 -75.0073       3 -75.1028       4 -75.6184



 E-fermi :   5.0233     XC(G=0):  -9.0172     alpha+bet :-11.0146

 Fermi energy:         5.0232861284

 k-point     1 :       0.2500    0.2500    0.2500
  band No.  band energies     occupation 
      1      -2.9339      2.00000
      2      -0.7779      2.00000
      3       1.9180      2.00000
      4       2.7583      2.00000
      5       2.9373      2.00000
      6       4.6938      1.96915
      7       5.2383      0.12455
      8       6.0869      0.00000
      9       7.6366      0.00000
     10       7.8542      0.00000
     11       8.4381      0.00000
     12      10.2370      0.00000

 k-point     2 :       0.2500   -0.2500    0.2500
  band No.  band energies     occupation 
      1      -2.9365      2.00000
      2      -0.7615      2.00000
      3       1.8281      2.00000
      4       2.8173      2.00000
      5       2.9447      2.00000
      6       4.8070      1.87734
      7       5.2027      0.18839
      8       6.0616      0.00000
      9       7.5698      0.00000
     10       7.7268      0.00000
     11       8.5423      0.00000
     12      11.6951      0.00000

 k-point     3 :       0.2500   -0.2500   -0.2500
  band No.  band energies     occupation 
      1      -2.9384      2.00000
      2      -0.7433      2.00000
      3       1.7350      2.00000
      4       2.8682      2.00000
      5       2.9616      2.00000
      6       4.8937      1.67352
      7       5.2452      0.11472
      8       6.0314      0.00001
      9       7.2858      0.00000
     10       7.7849      0.00000
     11       8.5838      0.00000
     12      10.4363      0.00000

 k-point     4 :       0.2500    0.2500   -0.2500
  band No.  band energies     occupation 
      1      -2.9368      2.00000
      2      -0.7596      2.00000
      3       1.8218      2.00000
      4       2.7973      2.00000
      5       2.9679      2.00000
      6       4.7995      1.88775
      7       5.2145      0.16456
      8       6.1024      0.00000
      9       7.4266      0.00000
     10       7.7883      0.00000
     11       8.5748      0.00000
     12      10.3700      0.00000


--------------------------------------------------------------------------------------------------------


 soft charge-density along one line, spin component           1
         0         1         2         3         4         5         6         7         8         9
 total charge-density along one line

 pseudopotential strength for first ion, spin component:           1
  8.552  14.580  -0.000  -0.001  -0.001  -0.001  -0.004  -0.002
 14.580  24.859  -0.001  -0.002  -0.001  -0.002  -0.007  -0.004
 -0.000  -0.001   1.979  -0.000  -0.000   5.731  -0.000  -0.000
 -0.001  -0.002  -0.000   1.980  -0.000  -0.000   5.732  -0.000
 -0.001  -0.001  -0.000  -0.000   1.978  -0.000  -0.000   5.728
 -0.001  -0.002   5.731  -0.000  -0.000  16.493  -0.001  -0.001
 -0.004  -0.007  -0.000   5.732  -0.000  -0.001  16.496  -0.001
 -0.002  -0.004  -0.000  -0.000   5.728  -0.001  -0.001  16.485
 total augmentation occupancy for first ion, spin component:           1
  2.869  -0.491  -0.021  -0.039   0.010   0.002   0.004  -0.004
 -0.491   0.191   0.025   0.084  -0.016  -0.002  -0.005   0.002
 -0.021   0.025   0.756   0.057   0.036  -0.044  -0.003  -0.003
 -0.039   0.084   0.057   0.417   0.035  -0.003  -0.028  -0.003
  0.010  -0.016   0.036   0.035   0.776  -0.002  -0.002  -0.057
  0.002  -0.002  -0.044  -0.003  -0.002   0.003   0.000   0.000
  0.004  -0.005  -0.003  -0.028  -0.002   0.000   0.002   0.000
 -0.004   0.002  -0.003  -0.003  -0.057   0.000   0.000   0.004


------------------------ aborting loop because EDIFF is reached ----------------------------------------


    CHARGE:  cpu time      0.0013: real time      0.0013
    FORLOC:  cpu time      0.0002: real time      0.0002
    FORNL :  cpu time      0.0029: real time      0.0029
    STRESS:  cpu time      0.0017: real time      0.0017
    FORCOR:  cpu time      0.0032: real time      0.0032
    FORHAR:  cpu time      0.0013: real time      0.0013
    MIXING:  cpu time      0.0001: real time      0.0001
    OFIELD:  cpu time      0.0000: real time      0.0000
 only isotrope contributions calculated for stress because ISIF=1 (only pressure is correct)

  FORCE on cell =-STRESS in cart. coord.  units (eV):
  Direction    XX          YY          ZZ          XY          YZ          ZX
  --------------------------------------------------------------------------------------
  Alpha Z    -0.60288    -0.60288    -0.60288
  Ewald    -100.52705   -70.02775   -80.04657     0.17252     0.59442     0.15226
  Hartree    -9.78818    12.85490    10.89734     0.17461     0.03351     0.18635
  E(xc)     -32.83846   -32.72060   -32.66136     0.02089    -0.02476     0.02851
  Local      12.76571   -38.27029   -25.69152    -0.67459    -1.10151    -0.43330
  n-local    80.55012    80.55012    80.55012     0.00000     0.00000     0.00000
  augment    -5.11879    -5.11879    -5.11879     0.00000     0.00000     0.00000
  Kinetic    44.84024    62.98495    54.84287    -0.10175     0.35557     0.44042
  Fock        0.00000     0.00000     0.00000     0.00000     0.00000     0.00000
  -------------------------------------------------------------------------------------
  Total     -10.71929     9.64967     2.16920    -0.40833    -0.14277     0.37425
  in kB    -192.66528   173.44032    38.98858    -7.33924    -2.56608     6.72657
  external pressure =        6.59 kB  Pullay stress =        0.00 kB

  kinetic pressure (ideal gas correction) =      6.70 kB
  total pressure  =     13.29 kB
  Total+kin.  -174.236     174.070      40.025     -10.114      -2.610       5.608

 VOLUME and BASIS-vectors are now :
 -----------------------------------------------------------------------------
  energy-cutoff  :      240.30
  volume of cell :       89.14
      direct lattice vectors                 reciprocal lattice vectors
     7.091057987  0.000000000  0.000000000     0.141022680  0.000000000  0.000000000
     0.000000000  3.545528993  0.000000000     0.000000000  0.282045360  0.000000000
     0.000000000  0.000000000  3.545528993     0.000000000  0.000000000  0.282045360

  length of vectors
     7.091057987  3.545528993  3.545528993     0.141022680  0.282045360  0.282045360


 FORCES acting on ions
    electron-ion (+dipol)            ewald-force                    non-local-force                 convergence-correction
 -----------------------------------------------------------------------------------------------
   0.100E+02 -.218E+00 -.922E+00   -.990E+01 0.605E+00 0.236E+01   0.231E+00 -.318E+00 -.155E+01   0.380E-02 0.231E-03 0.920E-03
   -.528E+01 0.967E+00 -.644E+01   0.471E+01 -.634E+00 0.509E+01   0.440E+00 -.525E+00 0.208E+01   0.129E-02 0.190E-03 0.385E-03
   0.249E+02 -.112E+01 0.456E+01   -.216E+02 0.783E+00 -.364E+01   -.374E+01 0.663E+00 -.125E+01   0.119E-01 -.359E-03 -.783E-03
   -.294E+02 0.500E+00 0.373E+01   0.268E+02 -.754E+00 -.381E+01   0.279E+01 0.528E-01 -.205E+00   -.136E-01 0.229E-04 -.112E-02
 -----------------------------------------------------------------------------------------------
   0.280E+00 0.127E+00 0.926E+00   0.000E+00 0.000E+00 -.133E-14   -.283E+00 -.127E+00 -.923E+00   0.346E-02 0.835E-04 -.595E-03


 POSITION                                       TOTAL-FORCE (eV/Angst)
 -----------------------------------------------------------------------------------
      0.15205      3.45660      3.20668         0.365575      0.069545     -0.103710
      3.28584      0.03868      3.45724        -0.126202     -0.191630      0.729603
      2.30842      1.72198      1.77266        -0.370771      0.323014     -0.337106
      4.89027      1.87380      2.20001         0.131996     -0.200584     -0.286796
 -----------------------------------------------------------------------------------
    total drift:                                0.000597      0.000345      0.001991


--------------------------------------------------------------------------------------------------------



  FREE ENERGIE OF THE ION-ELECTRON SYSTEM (eV)
  ---------------------------------------------------
  free  energy   TOTEN  =       -12.28176356 eV

  energy  without entropy=      -12.20166234  energy(sigma->0) =      -12.24171295



--------------------------------------------------------------------------------------------------------


    POTLOK:  cpu time      0.0038: real time      0.0038


--------------------------------------------------------------------------------------------------------


           RANDOM_SEED =         692608612                0                0
           RANDOM_SEED =         692608612                0                0
   IONSTEP:  cpu time      0.0001: real time      0.0001

  ENERGY OF THE ELECTRON-ION-THERMOSTAT SYSTEM (eV)
  ---------------------------------------------------
% ion-electron   TOTEN  =       -12.281764  see above
  kinetic energy EKIN   =         0.571368
  kin. lattice  EKIN_LAT=         0.000000  (temperature 1473.42 K)
  nose potential ES     =         0.008077
  nose kinetic   EPS    =         0.000016
  ---------------------------------------------------
  total energy   ETOTAL =       -11.702303 eV

  maximum distance moved by ions :      0.45E-02

    WAVPRE:  cpu time      0.0010: real time      0.0010
    FEWALD:  cpu time      0.0001: real time      0.0001
    ORTHCH:  cpu time      0.0008: real time      0.0008
     LOOP+:  cpu time      0.1769: real time      0.1769


--------------------------------------- Iteration      2(   1)  ---------------------------------------


    POTLOK:  cpu time      0.0037: real time      0.0037
    SETDIJ:  cpu time      0.0006: real time      0.0006
    EDDIAG:  cpu time      0.0025: real time      0.0025
  RMM-DIIS:  cpu time      0.0054: real time      0.0054
    ORTHCH:  cpu time      0.0003: real time      0.0003
       DOS:  cpu time      0.0001: real time      0.0001
    CHARGE:  cpu time      0.0016: real time      0.0016
    MIXING:  cpu time      0.0001: real time      0.0001
    --------------------------------------------
      LOOP:  cpu time      0.0143: real time      0.0143

 eigenvalue-minimisations  :    96
 total energy-change (2. order) :-0.2232669E-01  (-0.1799224E-01)
 number of electron      12.0000001 magnetization 
 augmentation part       -0.1917878 magnetization 

  free energy =  -0.123041897295E+02  energy without entropy=  -0.122219319658E+02


--------------------------------------------------------------------------------------------------------




--------------------------------------- Iteration      2(   2)  ---------------------------------------


    POTLOK:  cpu time      0.0038: real time      0.0038
    SETDIJ:  cpu time      0.0006: real time      0.0006
    EDDIAG:  cpu time      0.0025: real time      0.0025
  RMM-DIIS:  cpu time      0.0057: real time      0.0057
    ORTHCH:  cpu time      0.0002: real time      0.0002
       DOS:  cpu time      0.0001: real time      0.0001
    CHARGE:  cpu time      0.0012: real time      0.0012
    MIXING:  cpu time      0.0002: real time      0.0002
    --------------------------------------------
      LOOP:  cpu time      0.0143: real time      0.0143

 eigenvalue-minimisations  :    96
 total energy-change (2. order) : 0.1415415E-02  (-0.8984291E-03)
 number of electron      12.0000001 magnetization 
 augmentation part       -0.1920063 magnetization 

 eigenvalues of (default mixing * dielectric matrix)
  average eigenvalue GAMMA=   1.6254
  2.5191  2.5191  0.8176  1.1514  1.3726  1.3726

  free energy =  -0.123027743144E+02  energy without entropy=  -0.122206648383E+02


--------------------------------------------------------------------------------------------------------




--------------------------------------- Iteration      2(   3)  ---------------------------------------


    POTLOK:  cpu time      0.0034: real time      0.0034
    SETDIJ:  cpu time      0.0005: real time      0.0005
    EDDIAG:  cpu time      0.0025: real time      0.0025
  RMM-DIIS:  cpu time      0.0056: real time      0.0056
    ORTHCH:  cpu time      0.0002: real time      0.0002
       DOS:  cpu time      0.0001: real time      0.0001
    CHARGE:  cpu time      0.0012: real time      0.0012
    MIXING:  cpu time      0.0002: real time      0.0002
    --------------------------------------------
      LOOP:  cpu time      0.0136: real time      0.0136

 eigenvalue-minimisations  :    96
 total energy-change (2. order) :-0.8330634E-04  (-0.1337050E-03)
 number of electron      12.0000001 magnetization 
 augmentation part       -0.1920478 magnetization 

 eigenvalues of (default mixing * dielectric matrix)
  average eigenvalue GAMMA=   1.4984
  2.5104  2.5104  0.8173  1.3346  1.1684  1.0737  1.0737

  free energy =  -0.123028576208E+02  energy without entropy=  -0.122208845571E+02


--------------------------------------------------------------------------------------------------------




--------------------------------------- Iteration      2(   4)  ---------------------------------------


    POTLOK:  cpu time      0.0034: real time      0.0034
    SETDIJ:  cpu time      0.0006: real time      0.0006
    EDDIAG:  cpu time      0.0025: real time      0.0025
  RMM-DIIS:  cpu time      0.0046: real time      0.0046
    ORTHCH:  cpu time      0.0003: real time      0.0003
       DOS:  cpu time      0.0001: real time      0.0001
    --------------------------------------------
      LOOP:  cpu time      0.0113: real time      0.0113

 eigenvalue-minimisations  :    68
 total energy-change (2. order) :-0.8349008E-05  (-0.1399099E-04)
 number of electron      12.0000001 magnetization 
 augmentation part       -0.1920478 magnetization 

  free energy =  -0.123028659698E+02  energy without entropy=  -0.122208859204E+02


--------------------------------------------------------------------------------------------------------




------------------------ aborting loop because EDIFF is reached ----------------------------------------


    CHARGE:  cpu time      0.0013: real time      0.0013
    FORLOC:  cpu time      0.0002: real time      0.0002
    FORNL :  cpu time      0.0021: real time      0.0021
    STRESS:  cpu time      0.0015: real time      0.0015
    FORCOR:  cpu time      0.0034: real time      0.0034
    FORHAR:  cpu time      0.0008: real time      0.0008
    MIXING:  cpu time      0.0002: real time      0.0002
    OFIELD:  cpu time      0.0000: real time      0.0000
 only isotrope contributions calculated for stress because ISIF=1 (only pressure is correct)

  FORCE on cell =-STRESS in cart. coord.  units (eV):
  Direction    XX          YY          ZZ          XY          YZ          ZX
  --------------------------------------------------------------------------------------
  Alpha Z    -0.60288    -0.60288    -0.60288
  Ewald     -99.33013   -71.12302   -81.21278     0.12653     0.55929    -0.10473
  Hartree    -9.01759    12.04767    10.06919     0.16025     0.03281     0.17046
  E(xc)     -32.76450   -32.65551   -32.59697     0.01980    -0.02370     0.03440
  Local      10.90975   -36.26275   -23.51504    -0.59109    -1.05806    -0.13509
  n-local    80.21553    80.21553    80.21553     0.00000     0.00000     0.00000
  augment    -5.11854    -5.11854    -5.11854     0.00000     0.00000     0.00000
  Kinetic    44.30793    63.18178    54.69276    -0.07949     0.33905     0.42534
  Fock        0.00000     0.00000     0.00000     0.00000     0.00000     0.00000
  -------------------------------------------------------------------------------------
  Total     -11.40043     9.68227     1.93128    -0.36399    -0.15061     0.39038
  in kB    -204.90791   174.02616    34.71216    -6.54227    -2.70705     7.01653
  external pressure =        1.28 kB  Pullay stress =        0.00 kB

  kinetic pressure (ideal gas correction) =      7.00 kB
  total pressure  =      8.28 kB
  Total+kin.  -185.808     174.737      35.901      -9.589      -2.757       5.880


--------------------------------------------------------------------------------------------------------



  FREE ENERGIE OF THE ION-ELECTRON SYSTEM (eV)
  ---------------------------------------------------
  free  energy   TOTEN  =       -12.30286597 eV

  energy  without entropy=      -12.22088592  energy(sigma->0) =      -12.26187595

 d Force = 0.2120439E-01[ 0.165E-01, 0.259E-01]  d Energy = 0.2110241E-01 0.102E-03
 d Force = 0.1064630E+01[ 0.102E+01, 0.111E+01]  d Ewald  = 0.1064558E+01 0.719E-04


--------------------------------------------------------------------------------------------------------


    POTLOK:  cpu time      0.0038: real time      0.0038


--------------------------------------------------------------------------------------------------------


           RANDOM_SEED =         692608612                0                0
   IONSTEP:  cpu time      0.0000: real time      0.0000

  ENERGY OF THE ELECTRON-ION-THERMOSTAT SYSTEM (eV)
  ---------------------------------------------------
% ion-electron   TOTEN  =       -12.302866  see above
  kinetic energy EKIN   =         0.592501
  kin. lattice  EKIN_LAT=         0.000000  (temperature 1527.92 K)
  nose potential ES     =         0.008083
  nose kinetic   EPS    =         0.000024
  ---------------------------------------------------
  total energy   ETOTAL =       -11.702258 eV

  maximum distance moved by ions :      0.46E-02

 Prediction of Wavefunctions ALPHA= 1.024 BETA= 0.000
    WAVPRE:  cpu time      0.0021: real time      0.0021
    FEWALD:  cpu time      0.0001: real time      0.0001
    ORTHCH:  cpu time      0.0007: real time      0.0007
     LOOP+:  cpu time      0.0705: real time      0.0705


--------------------------------------- Iteration      3(   1)  ---------------------------------------


    POTLOK:  cpu time      0.0033: real time      0.0033
    SETDIJ:  cpu time      0.0007: real time      0.0007
    EDDIAG:  cpu time      0.0024: real time      0.0024
  RMM-DIIS:  cpu time      0.0055: real time      0.0055
    ORTHCH:  cpu time      0.0002: real time      0.0002
       DOS:  cpu time      0.0001: real time      0.0001
    CHARGE:  cpu time      0.0011: real time      0.0011
    MIXING:  cpu time      0.0001: real time      0.0001
    --------------------------------------------
      LOOP:  cpu time      0.0134: real time      0.0134

 eigenvalue-minimisations  :    96
 total energy-change (2. order) :-0.1405724E-01  (-0.1336429E-03)
 number of electron      12.0000001 magnetization 
 augmentation part       -0.1917368 magnetization 

  free energy =  -0.123169148590E+02  energy without entropy=  -0.122327645911E+02


--------------------------------------------------------------------------------------------------------




--------------------------------------- Iteration      3(   2)  ---------------------------------------


    POTLOK:  cpu time      0.0033: real time      0.0033
    SETDIJ:  cpu time      0.0006: real time      0.0006
    EDDIAG:  cpu time      0.0025: real time      0.0025
  RMM-DIIS:  cpu time      0.0041: real time      0.0041
    ORTHCH:  cpu time      0.0002: real time      0.0002
       DOS:  cpu time      0.0000: real time      0.0000
    --------------------------------------------
      LOOP:  cpu time      0.0108: real time      0.0108

 eigenvalue-minimisations  :    64
 total energy-change (2. order) : 0.9404271E-06  (-0.1180337E-04)
 number of electron      12.0000001 magnetization 
 augmentation part       -0.1917368 magnetization 

  free energy =  -0.123169139186E+02  energy without entropy=  -0.122327299231E+02


--------------------------------------------------------------------------------------------------------




------------------------ aborting loop because EDIFF is reached ----------------------------------------


    CHARGE:  cpu time      0.0011: real time      0.0011
    FORLOC:  cpu time      0.0002: real time      0.0002
    FORNL :  cpu time      0.0023: real time      0.0023
    STRESS:  cpu time      0.0016: real time      0.0016
    FORCOR:  cpu time      0.0033: real time      0.0033
    FORHAR:  cpu time      0.0009: real time      0.0009
    MIXING:  cpu time      0.0002: real time      0.0002
    OFIELD:  cpu time      0.0000: real time      0.0000
 only isotrope contributions calculated for stress because ISIF=1 (only pressure is correct)

  FORCE on cell =-STRESS in cart. coord.  units (eV):
  Direction    XX          YY          ZZ          XY          YZ          ZX
  --------------------------------------------------------------------------------------
  Alpha Z    -0.60288    -0.60288    -0.60288
  Ewald     -98.21625   -72.14910   -82.28758     0.08953     0.53252    -0.36421
  Hartree    -8.27721    11.26669     9.27428     0.14571     0.03211     0.15425
  E(xc)     -32.70101   -32.59590   -32.53870     0.01881    -0.02299     0.04034
  Local       9.15465   -34.35356   -21.47095    -0.51438    -1.02206     0.16664
  n-local    79.89450    79.89450    79.89450     0.00000     0.00000     0.00000
  augment    -5.11161    -5.11161    -5.11161     0.00000     0.00000     0.00000
  Kinetic    43.81667    63.35609    54.55935    -0.05373     0.32170     0.40680
  Fock        0.00000     0.00000     0.00000     0.00000     0.00000     0.00000
  -------------------------------------------------------------------------------------
  Total     -12.04314     9.70424     1.71641    -0.31406    -0.15872     0.40383
  in kB    -216.45978   174.42109    30.85019    -5.64490    -2.85274     7.25824
  external pressure =       -3.73 kB  Pullay stress =        0.00 kB

  kinetic pressure (ideal gas correction) =      7.20 kB
  total pressure  =      3.47 kB
  Total+kin.  -196.999     175.213      32.209      -8.905      -2.916       6.073


--------------------------------------------------------------------------------------------------------



  FREE ENERGIE OF THE ION-ELECTRON SYSTEM (eV)
  ---------------------------------------------------
  free  energy   TOTEN  =       -12.31691392 eV

  energy  without entropy=      -12.23272992  energy(sigma->0) =      -12.27482192

 d Force = 0.1409948E-01[ 0.103E-01, 0.179E-01]  d Energy = 0.1404795E-01 0.515E-04
 d Force = 0.9870921E+00[ 0.946E+00, 0.103E+01]  d Ewald  = 0.9870168E+00 0.753E-04


--------------------------------------------------------------------------------------------------------


    POTLOK:  cpu time      0.0039: real time      0.0039


--------------------------------------------------------------------------------------------------------


           RANDOM_SEED =         692608612                0                0
   IONSTEP:  cpu time      0.0000: real time      0.0000

  ENERGY OF THE ELECTRON-ION-THERMOSTAT SYSTEM (eV)
  ---------------------------------------------------
% ion-electron   TOTEN  =       -12.316914  see above
  kinetic energy EKIN   =         0.606123
  kin. lattice  EKIN_LAT=         0.000000  (temperature 1563.05 K)
  nose potential ES     =         0.008348
  nose kinetic   EPS    =         0.000206
  ---------------------------------------------------
  total energy   ETOTAL =       -11.702237 eV

  maximum distance moved by ions :      0.46E-02

 Prediction of Wavefunctions ALPHA= 1.925 BETA=-0.930
    WAVPRE:  cpu time      0.0020: real time      0.0020
    FEWALD:  cpu time      0.0001: real time      0.0001
    ORTHCH:  cpu time      0.0007: real time      0.0007
     LOOP+:  cpu time      0.0411: real time      0.0411


--------------------------------------- Iteration      4(   1)  ---------------------------------------


    POTLOK:  cpu time      0.0033: real time      0.0033
    SETDIJ:  cpu time      0.0006: real time      0.0006
    EDDIAG:  cpu time      0.0025: real time      0.0025
  RMM-DIIS:  cpu time      0.0054: real time      0.0054
    ORTHCH:  cpu time      0.0002: real time      0.0002
       DOS:  cpu time      0.0001: real time      0.0001
    CHARGE:  cpu time      0.0011: real time      0.0011
    MIXING:  cpu time      0.0001: real time      0.0001
    --------------------------------------------
      LOOP:  cpu time      0.0134: real time      0.0134

 eigenvalue-minimisations  :    85
 total energy-change (2. order) :-0.8127872E-02  (-0.3988458E-04)
 number of electron      12.0000002 magnetization 
 augmentation part       -0.1913967 magnetization 

  free energy =  -0.123250427309E+02  energy without entropy=  -0.122384685946E+02


--------------------------------------------------------------------------------------------------------




--------------------------------------- Iteration      4(   2)  ---------------------------------------


    POTLOK:  cpu time      0.0035: real time      0.0035
    SETDIJ:  cpu time      0.0007: real time      0.0007
    EDDIAG:  cpu time      0.0025: real time      0.0025
  RMM-DIIS:  cpu time      0.0040: real time      0.0040
    ORTHCH:  cpu time      0.0002: real time      0.0002
       DOS:  cpu time      0.0000: real time      0.0000
    --------------------------------------------
      LOOP:  cpu time      0.0110: real time      0.0110

 eigenvalue-minimisations  :    63
 total energy-change (2. order) :-0.4114495E-05  (-0.5065248E-05)
 number of electron      12.0000002 magnetization 
 augmentation part       -0.1913967 magnetization 

  free energy =  -0.123250468454E+02  energy without entropy=  -0.122384688013E+02


--------------------------------------------------------------------------------------------------------




------------------------ aborting loop because EDIFF is reached ----------------------------------------


    CHARGE:  cpu time      0.0012: real time      0.0012
    FORLOC:  cpu time      0.0002: real time      0.0002
    FORNL :  cpu time      0.0022: real time      0.0022
    STRESS:  cpu time      0.0017: real time      0.0017
    FORCOR:  cpu time      0.0033: real time      0.0033
    FORHAR:  cpu time      0.0009: real time      0.0009
    MIXING:  cpu time      0.0002: real time      0.0002
    OFIELD:  cpu time      0.0000: real time      0.0000
 only isotrope contributions calculated for stress because ISIF=1 (only pressure is correct)

  FORCE on cell =-STRESS in cart. coord.  units (eV):
  Direction    XX          YY          ZZ          XY          YZ          ZX
  --------------------------------------------------------------------------------------
  Alpha Z    -0.60288    -0.60288    -0.60288
  Ewald     -97.20117   -73.08821   -83.26066     0.05968     0.51275    -0.62515
  Hartree    -7.62506    10.57357     8.57134     0.13163     0.03141     0.13814
  E(xc)     -32.64257   -32.54115   -32.48470     0.01744    -0.02253     0.04616
  Local       7.60358   -32.64394   -19.64699    -0.44764    -0.99167     0.46638
  n-local    79.60408    79.60408    79.60408     0.00000     0.00000     0.00000
  augment    -5.10481    -5.10481    -5.10481     0.00000     0.00000     0.00000
  Kinetic    43.38245    63.51089    54.43875    -0.02754     0.30385     0.38299
  Fock        0.00000     0.00000     0.00000     0.00000     0.00000     0.00000
  -------------------------------------------------------------------------------------
  Total     -12.58639     9.70754     1.51413    -0.26642    -0.16619     0.40852
  in kB    -226.22407   174.48046    27.21445    -4.78848    -2.98713     7.34269
  external pressure =       -8.18 kB  Pullay stress =        0.00 kB

  kinetic pressure (ideal gas correction) =      7.33 kB
  total pressure  =     -0.85 kB
  Total+kin.  -206.649     175.350      28.747      -8.203      -3.069       6.081


--------------------------------------------------------------------------------------------------------



  FREE ENERGIE OF THE ION-ELECTRON SYSTEM (eV)
  ---------------------------------------------------
  free  energy   TOTEN  =       -12.32504685 eV

  energy  without entropy=      -12.23846880  energy(sigma->0) =      -12.28175782

 d Force = 0.8268785E-02[ 0.508E-02, 0.115E-01]  d Energy = 0.8132927E-02 0.136E-03
 d Force = 0.8971775E+00[ 0.856E+00, 0.939E+00]  d Ewald  = 0.8970983E+00 0.792E-04


--------------------------------------------------------------------------------------------------------


    POTLOK:  cpu time      0.0039: real time      0.0039


--------------------------------------------------------------------------------------------------------


           RANDOM_SEED =         692608612                0                0
   IONSTEP:  cpu time      0.0000: real time      0.0000

  ENERGY OF THE ELECTRON-ION-THERMOSTAT SYSTEM (eV)
  ---------------------------------------------------
% ion-electron   TOTEN  =       -12.325047  see above
  kinetic energy EKIN   =         0.613458
  kin. lattice  EKIN_LAT=         0.000000  (temperature 1581.96 K)
  nose potential ES     =         0.008886
  nose kinetic   EPS    =         0.000589
  ---------------------------------------------------
  total energy   ETOTAL =       -11.702114 eV

  maximum distance moved by ions :      0.46E-02

 Prediction of Wavefunctions ALPHA= 1.928 BETA=-0.932
    WAVPRE:  cpu time      0.0020: real time      0.0020
    FEWALD:  cpu time      0.0001: real time      0.0001
    ORTHCH:  cpu time      0.0007: real time      0.0007
     LOOP+:  cpu time      0.0414: real time      0.0414


--------------------------------------- Iteration      5(   1)  ---------------------------------------


    POTLOK:  cpu time      0.0033: real time      0.0033
    SETDIJ:  cpu time      0.0006: real time      0.0006
    EDDIAG:  cpu time      0.0024: real time      0.0024
  RMM-DIIS:  cpu time      0.0051: real time      0.0051
    ORTHCH:  cpu time      0.0002: real time      0.0002
       DOS:  cpu time      0.0001: real time      0.0001
    CHARGE:  cpu time      0.0011: real time      0.0011
    MIXING:  cpu time      0.0001: real time      0.0001
    --------------------------------------------
      LOOP:  cpu time      0.0129: real time      0.0129

 eigenvalue-minimisations  :    76
 total energy-change (2. order) :-0.3386566E-02  (-0.1998492E-04)
 number of electron      12.0000002 magnetization 
 augmentation part       -0.1912388 magnetization 

  free energy =  -0.123284292972E+02  energy without entropy=  -0.122392832026E+02


--------------------------------------------------------------------------------------------------------




--------------------------------------- Iteration      5(   2)  ---------------------------------------


    POTLOK:  cpu time      0.0034: real time      0.0034
    SETDIJ:  cpu time      0.0006: real time      0.0006
    EDDIAG:  cpu time      0.0026: real time      0.0026
  RMM-DIIS:  cpu time      0.0040: real time      0.0040
    ORTHCH:  cpu time      0.0003: real time      0.0003
       DOS:  cpu time      0.0001: real time      0.0001
    --------------------------------------------
      LOOP:  cpu time      0.0109: real time      0.0109

 eigenvalue-minimisations  :    64
 total energy-change (2. order) :-0.1831685E-05  (-0.3383199E-05)
 number of electron      12.0000002 magnetization 
 augmentation part       -0.1912388 magnetization 

  free energy =  -0.123284311289E+02  energy without entropy=  -0.122392467777E+02


--------------------------------------------------------------------------------------------------------




------------------------ aborting loop because EDIFF is reached ----------------------------------------


    CHARGE:  cpu time      0.0012: real time      0.0012
    FORLOC:  cpu time      0.0002: real time      0.0002
    FORNL :  cpu time      0.0022: real time      0.0022
    STRESS:  cpu time      0.0017: real time      0.0017
    FORCOR:  cpu time      0.0034: real time      0.0034
    FORHAR:  cpu time      0.0008: real time      0.0008
    MIXING:  cpu time      0.0002: real time      0.0002
    OFIELD:  cpu time      0.0000: real time      0.0000
 only isotrope contributions calculated for stress because ISIF=1 (only pressure is correct)

  FORCE on cell =-STRESS in cart. coord.  units (eV):
  Direction    XX          YY          ZZ          XY          YZ          ZX
  --------------------------------------------------------------------------------------
  Alpha Z    -0.60288    -0.60288    -0.60288
  Ewald     -96.29718   -73.92665   -84.12463     0.03500     0.49872    -0.88649
  Hartree    -7.03077     9.93782     7.93067     0.11811     0.03065     0.12227
  E(xc)     -32.59089   -32.49208   -32.43598     0.01596    -0.02218     0.05219
  Local       6.22060   -31.10267   -18.01216    -0.38773    -0.96534     0.76676
  n-local    79.34208    79.34208    79.34208     0.00000     0.00000     0.00000
  augment    -5.10038    -5.10038    -5.10038     0.00000     0.00000     0.00000
  Kinetic    42.99577    63.63833    54.33787    -0.00181     0.28559     0.35548
  Fock        0.00000     0.00000     0.00000     0.00000     0.00000     0.00000
  -------------------------------------------------------------------------------------
  Total     -13.06365     9.69358     1.33459    -0.22046    -0.17255     0.41021
  in kB    -234.80220   174.22944    23.98759    -3.96256    -3.10140     7.37301
  external pressure =      -12.20 kB  Pullay stress =        0.00 kB

  kinetic pressure (ideal gas correction) =      7.38 kB
  total pressure  =     -4.82 kB
  Total+kin.  -215.306     175.172      25.687      -7.472      -3.206       6.012


--------------------------------------------------------------------------------------------------------



  FREE ENERGIE OF THE ION-ELECTRON SYSTEM (eV)
  ---------------------------------------------------
  free  energy   TOTEN  =       -12.32843113 eV

  energy  without entropy=      -12.23924678  energy(sigma->0) =      -12.28383895

 d Force = 0.3565984E-02[ 0.949E-03, 0.618E-02]  d Energy = 0.3384284E-02 0.182E-03
 d Force = 0.7984955E+00[ 0.757E+00, 0.840E+00]  d Ewald  = 0.7984117E+00 0.838E-04


--------------------------------------------------------------------------------------------------------


    POTLOK:  cpu time      0.0041: real time      0.0041


--------------------------------------------------------------------------------------------------------


           RANDOM_SEED =         692608612                0                0
   IONSTEP:  cpu time      0.0000: real time      0.0000

  ENERGY OF THE ELECTRON-ION-THERMOSTAT SYSTEM (eV)
  ---------------------------------------------------
% ion-electron   TOTEN  =       -12.328431  see above
  kinetic energy EKIN   =         0.615610
  kin. lattice  EKIN_LAT=         0.000000  (temperature 1587.52 K)
  nose potential ES     =         0.009705
  nose kinetic   EPS    =         0.001181
  ---------------------------------------------------
  total energy   ETOTAL =       -11.701935 eV

  maximum distance moved by ions :      0.46E-02


 mean value of Nose-termostat <S>:     1.013 mean value of <T> :  1546.775
 mean temperature <T/S>/<1/S>  :  1546.726

 Prediction of Wavefunctions ALPHA= 1.930 BETA=-0.934
    WAVPRE:  cpu time      0.0032: real time      0.0032
    FEWALD:  cpu time      0.0001: real time      0.0001
    ORTHCH:  cpu time      0.0007: real time      0.0007
     LOOP+:  cpu time      0.0423: real time      0.0423


--------------------------------------- Iteration      6(   1)  ---------------------------------------


    POTLOK:  cpu time      0.0041: real time      0.0041
[...]
--------------------------------------------------------------------------------------------------------


           RANDOM_SEED =         692608612                0                0
   IONSTEP:  cpu time      0.0000: real time      0.0000

  ENERGY OF THE ELECTRON-ION-THERMOSTAT SYSTEM (eV)
  ---------------------------------------------------
% ion-electron   TOTEN  =       -12.323553  see above
  kinetic energy EKIN   =         0.356843
  kin. lattice  EKIN_LAT=         0.000000  (temperature  920.21 K)
  nose potential ES     =         0.251182
  nose kinetic   EPS    =         0.014027
  ---------------------------------------------------
  total energy   ETOTAL =       -11.701501 eV

  maximum distance moved by ions :      0.49E-02

 Prediction of Wavefunctions ALPHA= 1.952 BETA=-0.959
    WAVPRE:  cpu time      0.0021: real time      0.0021
    FEWALD:  cpu time      0.0001: real time      0.0001
    ORTHCH:  cpu time      0.0007: real time      0.0007
     LOOP+:  cpu time      0.0442: real time      0.0442


--------------------------------------- Iteration     99(   1)  ---------------------------------------


    POTLOK:  cpu time      0.0034: real time      0.0034
    SETDIJ:  cpu time      0.0006: real time      0.0006
    EDDIAG:  cpu time      0.0024: real time      0.0024
  RMM-DIIS:  cpu time      0.0051: real time      0.0051
    ORTHCH:  cpu time      0.0003: real time      0.0003
       DOS:  cpu time      0.0001: real time      0.0001
    CHARGE:  cpu time      0.0012: real time      0.0012
    MIXING:  cpu time      0.0003: real time      0.0003
    --------------------------------------------
      LOOP:  cpu time      0.0134: real time      0.0134

 eigenvalue-minimisations  :    82
 total energy-change (2. order) : 0.1339392E-01  (-0.5172535E-04)
 number of electron      12.0000000 magnetization 
 augmentation part       -0.1801386 magnetization 

  free energy =  -0.123101537247E+02  energy without entropy=  -0.121689873257E+02


--------------------------------------------------------------------------------------------------------




--------------------------------------- Iteration     99(   2)  ---------------------------------------


    POTLOK:  cpu time      0.0033: real time      0.0033
    SETDIJ:  cpu time      0.0006: real time      0.0006
    EDDIAG:  cpu time      0.0025: real time      0.0025
  RMM-DIIS:  cpu time      0.0041: real time      0.0041
    ORTHCH:  cpu time      0.0003: real time      0.0003
       DOS:  cpu time      0.0000: real time      0.0001
    --------------------------------------------
      LOOP:  cpu time      0.0108: real time      0.0108

 eigenvalue-minimisations  :    64
 total energy-change (2. order) :-0.5366209E-05  (-0.5150062E-05)
 number of electron      12.0000000 magnetization 
 augmentation part       -0.1801386 magnetization 

  free energy =  -0.123101590909E+02  energy without entropy=  -0.121689847915E+02


--------------------------------------------------------------------------------------------------------




------------------------ aborting loop because EDIFF is reached ----------------------------------------


    CHARGE:  cpu time      0.0013: real time      0.0013
    FORLOC:  cpu time      0.0002: real time      0.0002
    FORNL :  cpu time      0.0022: real time      0.0022
    STRESS:  cpu time      0.0018: real time      0.0018
    FORCOR:  cpu time      0.0034: real time      0.0034
    FORHAR:  cpu time      0.0008: real time      0.0008
    MIXING:  cpu time      0.0027: real time      0.0027
    OFIELD:  cpu time      0.0000: real time      0.0000
 only isotrope contributions calculated for stress because ISIF=1 (only pressure is correct)

  FORCE on cell =-STRESS in cart. coord.  units (eV):
  Direction    XX          YY          ZZ          XY          YZ          ZX
  --------------------------------------------------------------------------------------
  Alpha Z    -0.60288    -0.60288    -0.60288
  Ewald    -122.40293   -51.70740   -61.67873    -0.73239    -0.69964     1.09329
  Hartree   -23.39938    25.64676    24.36019     0.07418    -0.02270     0.12530
  E(xc)     -33.36048   -33.17604   -33.01557     0.03360     0.04002    -0.02363
  Local      49.41044   -70.90101   -58.74826     0.36583     1.29385    -1.39001
  n-local    80.54913    80.54913    80.54913     0.00000     0.00000     0.00000
  augment    -4.79572    -4.79572    -4.79572     0.00000     0.00000     0.00000
  Kinetic    48.94303    62.13528    56.64707    -0.01557    -0.29379     0.16793
  Fock        0.00000     0.00000     0.00000     0.00000     0.00000     0.00000
  -------------------------------------------------------------------------------------
  Total      -5.65879     7.14813     2.71521    -0.27435     0.31775    -0.02712
  in kB    -101.70943   128.47828    48.80245    -4.93114     5.71112    -0.48747
  external pressure =       25.19 kB  Pullay stress =        0.00 kB

  kinetic pressure (ideal gas correction) =      4.19 kB
  total pressure  =     29.38 kB
  Total+kin.   -97.768     132.790      53.111      -7.352       2.827       1.680


--------------------------------------------------------------------------------------------------------



  FREE ENERGIE OF THE ION-ELECTRON SYSTEM (eV)
  ---------------------------------------------------
  free  energy   TOTEN  =       -12.31015909 eV

  energy  without entropy=      -12.16898479  energy(sigma->0) =      -12.23957194

 d Force =-0.1341450E-01[-0.160E-01,-0.108E-01]  d Energy =-0.1339391E-01-0.206E-04
 d Force =-0.3972122E+00[-0.411E+00,-0.384E+00]  d Ewald  =-0.3971857E+00-0.265E-04


--------------------------------------------------------------------------------------------------------


    POTLOK:  cpu time      0.0039: real time      0.0039


--------------------------------------------------------------------------------------------------------


           RANDOM_SEED =         692608612                0                0
   IONSTEP:  cpu time      0.0000: real time      0.0000

  ENERGY OF THE ELECTRON-ION-THERMOSTAT SYSTEM (eV)
  ---------------------------------------------------
% ion-electron   TOTEN  =       -12.310159  see above
  kinetic energy EKIN   =         0.340196
  kin. lattice  EKIN_LAT=         0.000000  (temperature  877.29 K)
  nose potential ES     =         0.254493
  nose kinetic   EPS    =         0.013951
  ---------------------------------------------------
  total energy   ETOTAL =       -11.701519 eV

  maximum distance moved by ions :      0.49E-02

 Prediction of Wavefunctions ALPHA= 1.953 BETA=-0.961
    WAVPRE:  cpu time      0.0020: real time      0.0020
    FEWALD:  cpu time      0.0001: real time      0.0001
    ORTHCH:  cpu time      0.0007: real time      0.0007
     LOOP+:  cpu time      0.0440: real time      0.0440


--------------------------------------- Iteration    100(   1)  ---------------------------------------


    POTLOK:  cpu time      0.0033: real time      0.0033
    SETDIJ:  cpu time      0.0006: real time      0.0006
    EDDIAG:  cpu time      0.0026: real time      0.0025
  RMM-DIIS:  cpu time      0.0052: real time      0.0052
    ORTHCH:  cpu time      0.0002: real time      0.0002
       DOS:  cpu time      0.0001: real time      0.0001
    CHARGE:  cpu time      0.0012: real time      0.0012
    MIXING:  cpu time      0.0003: real time      0.0003
    --------------------------------------------
      LOOP:  cpu time      0.0135: real time      0.0135

 eigenvalue-minimisations  :    85
 total energy-change (2. order) : 0.1605444E-01  (-0.4613153E-04)
 number of electron      12.0000000 magnetization 
 augmentation part       -0.1793318 magnetization 

  free energy =  -0.122940992819E+02  energy without entropy=  -0.121529894745E+02


--------------------------------------------------------------------------------------------------------




--------------------------------------- Iteration    100(   2)  ---------------------------------------


    POTLOK:  cpu time      0.0033: real time      0.0033
    SETDIJ:  cpu time      0.0006: real time      0.0006
    EDDIAG:  cpu time      0.0024: real time      0.0024
  RMM-DIIS:  cpu time      0.0040: real time      0.0040
    ORTHCH:  cpu time      0.0003: real time      0.0003
       DOS:  cpu time      0.0001: real time      0.0001
    --------------------------------------------
      LOOP:  cpu time      0.0107: real time      0.0107

 eigenvalue-minimisations  :    62
 total energy-change (2. order) :-0.4353502E-05  (-0.4862790E-05)
 number of electron      12.0000000 magnetization 
 augmentation part       -0.1793318 magnetization 

  free energy =  -0.122941036354E+02  energy without entropy=  -0.121530266688E+02


--------------------------------------------------------------------------------------------------------




 average (electrostatic) potential at core
  the test charge radii are     1.0406
  (the norm of the test charge is              1.0000)
       1 -75.0913       2 -76.0161       3 -75.0309       4 -75.8576



 E-fermi :   4.8193     XC(G=0):  -8.9285     alpha+bet :-11.0146

 Fermi energy:         4.8192612256

 k-point     1 :       0.2500    0.2500    0.2500
  band No.  band energies     occupation 
      1      -3.4164      2.00000
      2      -0.8955      2.00000
      3       2.0715      2.00000
      4       2.3236      2.00000
      5       2.6267      2.00000
      6       4.6868      1.68339
      7       4.9215      0.43163
      8       6.0298      0.00000
      9       7.8461      0.00000
     10       8.1627      0.00000
     11       8.3673      0.00000
     12      11.8910      0.00000

 k-point     2 :       0.2500   -0.2500    0.2500
  band No.  band energies     occupation 
      1      -3.4169      2.00000
      2      -0.8902      2.00000
      3       1.9868      2.00000
      4       2.4020      2.00000
      5       2.6252      2.00000
      6       4.6660      1.74722
      7       4.9736      0.24991
      8       6.0670      0.00000
      9       7.7530      0.00000
     10       8.1536      0.00000
     11       8.3286      0.00000
     12      10.1991      0.00000

 k-point     3 :       0.2500   -0.2500   -0.2500
  band No.  band energies     occupation 
      1      -3.4169      2.00000
      2      -0.8904      2.00000
      3       1.9854      2.00000
      4       2.3954      2.00000
      5       2.6381      2.00000
      6       4.7013      1.63143
      7       4.9521      0.31527
      8       5.9536      0.00000
      9       7.8441      0.00000
     10       8.1641      0.00000
     11       8.4308      0.00000
     12      10.4684      0.00000

 k-point     4 :       0.2500    0.2500   -0.2500
  band No.  band energies     occupation 
      1      -3.4161      2.00000
      2      -0.8976      2.00000
      3       2.0515      2.00000
      4       2.3649      2.00000
      5       2.6163      2.00000
      6       4.7050      1.61732
      7       4.9496      0.32382
      8       5.8842      0.00000
      9       7.9479      0.00000
     10       8.1982      0.00000
     11       8.4296      0.00000
     12      10.2534      0.00000


--------------------------------------------------------------------------------------------------------


 soft charge-density along one line, spin component           1
         0         1         2         3         4         5         6         7         8         9
 total charge-density along one line

 pseudopotential strength for first ion, spin component:           1
  8.540  14.559   0.000  -0.001  -0.001   0.001  -0.004  -0.001
 14.559  24.819   0.000  -0.002  -0.001   0.001  -0.007  -0.002
  0.000   0.000   1.990   0.000  -0.000   5.753   0.000  -0.000
 -0.001  -0.002   0.000   1.990   0.000   0.000   5.752   0.000
 -0.001  -0.001  -0.000   0.000   1.990  -0.000   0.000   5.752
  0.001   0.001   5.753   0.000  -0.000  16.537   0.000  -0.000
 -0.004  -0.007   0.000   5.752   0.000   0.000  16.536   0.001
 -0.001  -0.002  -0.000   0.000   5.752  -0.000   0.001  16.535
 total augmentation occupancy for first ion, spin component:           1
  4.426  -1.184  -0.043   0.187   0.071   0.005  -0.027  -0.015
 -1.184   0.375   0.016  -0.062  -0.059  -0.002   0.009   0.006
 -0.043   0.016   1.414  -0.006   0.007  -0.127   0.001  -0.000
  0.187  -0.062  -0.006   1.311  -0.165   0.001  -0.115   0.016
  0.071  -0.059   0.007  -0.165   1.189  -0.000   0.016  -0.102
  0.005  -0.002  -0.127   0.001  -0.000   0.012  -0.000   0.000
 -0.027   0.009   0.001  -0.115   0.016  -0.000   0.011  -0.002
 -0.015   0.006  -0.000   0.016  -0.102   0.000  -0.002   0.009


------------------------ aborting loop because EDIFF is reached ----------------------------------------


    CHARGE:  cpu time      0.0012: real time      0.0012
    FORLOC:  cpu time      0.0002: real time      0.0002
    FORNL :  cpu time      0.0022: real time      0.0022
    STRESS:  cpu time      0.0017: real time      0.0017
    FORCOR:  cpu time      0.0034: real time      0.0034
    FORHAR:  cpu time      0.0009: real time      0.0009
    MIXING:  cpu time      0.0026: real time      0.0026
    OFIELD:  cpu time      0.0000: real time      0.0000
 only isotrope contributions calculated for stress because ISIF=1 (only pressure is correct)

  FORCE on cell =-STRESS in cart. coord.  units (eV):
  Direction    XX          YY          ZZ          XY          YZ          ZX
  --------------------------------------------------------------------------------------
  Alpha Z    -0.60288    -0.60288    -0.60288
  Ewald    -122.82922   -50.90537   -61.69539    -0.88230    -0.94514     1.07116
  Hartree   -23.61015    25.93828    24.56182     0.05330    -0.02686     0.11451
  E(xc)     -33.37588   -33.20556   -33.02923     0.03687     0.05317    -0.02444
  Local      50.11536   -72.07362   -58.97785     0.58742     1.68178    -1.32817
  n-local    80.53640    80.53640    80.53640     0.00000     0.00000     0.00000
  augment    -4.77391    -4.77391    -4.77391     0.00000     0.00000     0.00000
  Kinetic    49.02998    62.37790    56.54816    -0.05413    -0.37792     0.17007
  Fock        0.00000     0.00000     0.00000     0.00000     0.00000     0.00000
  -------------------------------------------------------------------------------------
  Total      -5.51030     7.29124     2.56711    -0.25884     0.38504     0.00313
  in kB     -99.04051   131.05050    46.14040    -4.65239     6.92054     0.05625
  external pressure =       26.05 kB  Pullay stress =        0.00 kB

  kinetic pressure (ideal gas correction) =      3.97 kB
  total pressure  =     30.02 kB
  Total+kin.   -95.026     135.292      49.806      -7.221       4.292       2.279

 VOLUME and BASIS-vectors are now :
 -----------------------------------------------------------------------------
  energy-cutoff  :      240.30
  volume of cell :       89.14
      direct lattice vectors                 reciprocal lattice vectors
     7.091057987  0.000000000  0.000000000     0.141022680  0.000000000  0.000000000
     0.000000000  3.545528993  0.000000000     0.000000000  0.282045360  0.000000000
     0.000000000  0.000000000  3.545528993     0.000000000  0.000000000  0.282045360

  length of vectors
     7.091057987  3.545528993  3.545528993     0.141022680  0.282045360  0.282045360


 FORCES acting on ions
    electron-ion (+dipol)            ewald-force                    non-local-force                 convergence-correction
 -----------------------------------------------------------------------------------------------
   0.149E+02 -.947E+00 0.486E+01   -.150E+02 0.600E+00 -.319E+01   0.439E+00 0.502E+00 -.235E+01   0.286E-02 -.396E-03 0.269E-03
   -.397E+02 0.134E+01 -.274E+01   0.359E+02 -.946E+00 0.329E+01   0.401E+01 -.634E+00 -.108E+00   -.136E-02 -.159E-03 -.109E-03
   -.200E+02 -.866E+00 0.447E+01   0.196E+02 0.533E+00 -.282E+01   0.641E+00 0.460E+00 -.197E+01   0.269E-02 0.364E-03 -.242E-03
   0.459E+02 0.290E+00 -.253E+01   -.405E+02 -.186E+00 0.272E+01   -.613E+01 -.147E+00 0.368E+00   -.592E-04 0.341E-03 -.299E-03
 -----------------------------------------------------------------------------------------------
   0.105E+01 -.183E+00 0.406E+01   0.711E-14 -.111E-15 0.000E+00   -.105E+01 0.181E+00 -.406E+01   0.412E-02 0.149E-03 -.381E-03


 POSITION                                       TOTAL-FORCE (eV/Angst)
 -----------------------------------------------------------------------------------
      0.24204      3.48331      0.26560         0.337995      0.154867     -0.676103
      2.95417      0.10901      3.19056         0.187435     -0.242241      0.440262
      1.42074      1.77423      2.03219         0.206880      0.127592     -0.324118
      6.01964      1.72452      1.60271        -0.730686     -0.042128      0.560614
 -----------------------------------------------------------------------------------
    total drift:                                0.001623     -0.001910      0.000654


--------------------------------------------------------------------------------------------------------



  FREE ENERGIE OF THE ION-ELECTRON SYSTEM (eV)
  ---------------------------------------------------
  free  energy   TOTEN  =       -12.29410364 eV

  energy  without entropy=      -12.15302667  energy(sigma->0) =      -12.22356515

 d Force =-0.1609600E-01[-0.189E-01,-0.133E-01]  d Energy =-0.1605546E-01-0.405E-04
 d Force =-0.3590774E+00[-0.372E+00,-0.346E+00]  d Ewald  =-0.3590527E+00-0.246E-04


--------------------------------------------------------------------------------------------------------


    POTLOK:  cpu time      0.0039: real time      0.0039


--------------------------------------------------------------------------------------------------------


           RANDOM_SEED =         692608612                0                0
   IONSTEP:  cpu time      0.0000: real time      0.0000

  ENERGY OF THE ELECTRON-ION-THERMOSTAT SYSTEM (eV)
  ---------------------------------------------------
% ion-electron   TOTEN  =       -12.294104  see above
  kinetic energy EKIN   =         0.321066
  kin. lattice  EKIN_LAT=         0.000000  (temperature  827.95 K)
  nose potential ES     =         0.257786
  nose kinetic   EPS    =         0.013709
  ---------------------------------------------------
  total energy   ETOTAL =       -11.701543 eV

  maximum distance moved by ions :      0.48E-02


 mean value of Nose-termostat <S>:     1.429 mean value of <T> :   914.862
 mean temperature <T/S>/<1/S>  :   915.238

 Prediction of Wavefunctions ALPHA= 1.961 BETA=-0.969
    WAVPRE:  cpu time      0.0033: real time      0.0033
    FEWALD:  cpu time      0.0001: real time      0.0001
    ORTHCH:  cpu time      0.0007: real time      0.0007
    POTLOK:  cpu time      0.0040: real time      0.0041
    EDDIAG:  cpu time      0.0025: real time      0.0025
     LOOP+:  cpu time      0.0519: real time      0.0519
    4ORBIT:  cpu time      0.0000: real time      0.0000

 total amount of memory used by VASP MPI-rank0    31901. kBytes
=======================================================================

   base      :      30000. kBytes
   nonl-proj :        241. kBytes
   fftplans  :        418. kBytes
   grid      :        777. kBytes
   one-center:         12. kBytes
   wavefun   :        453. kBytes

  
  
 General timing and accounting informations for this job:
 ========================================================
  
                  Total CPU time used (sec):        4.903
                            User time (sec):        4.835
                          System time (sec):        0.068
                         Elapsed time (sec):        4.918
  
                   Maximum memory used (kb):       36592.
                   Average memory used (kb):          N/A
  
                          Minor page faults:         3709
                          Major page faults:           33
                 Voluntary context switches:           70
