<?xml version="1.0" encoding="ISO-8859-1"?>
<modeling>
 <generator>
  <i name="program" type="string">vasp </i>
  <i name="version" type="string">6.3.0  </i>
  <i name="subversion" type="string">20Jan22 (build Jan 13 2025 16:42:03) complex                          parallel </i>
  <i name="platform" type="string">LinuxGNU </i>
  <i name="date" type="string">2025 06 24 </i>
  <i name="time" type="string">19:35:28 </i>
 </generator>
 <incar>
  <i type="string" name="SYSTEM">Al, 4 atoms</i>
  <i type="int" name="IALGO">    48</i>
  <i type="int" name="MAXMIX">    60</i>
  <i type="int" name="IBRION">     0</i>
  <i type="int" name="NSW">   100</i>
  <i type="int" name="ISIF">     1</i>
  <i type="int" name="ISYM">     0</i>
  <i type="int" name="NBLOCK">     5</i>
  <i type="int" name="KBLOCK">     1</i>
  <i name="POTIM">      2.00000000</i>
  <i name="TEBEG">    920.00000000</i>
  <i name="SMASS">      1.00000000</i>
  <i type="int" name="ISMEAR">    -1</i>
  <i name="SIGMA">      0.07927600</i>
  <i type="int" name="NWRITE">     0</i>
  <i type="logical" name="LWAVE"> F  </i>
  <i type="logical" name="LCHARG"> F  </i>
 </incar>
 <primitive_cell>
  <structure name="primitive_cell" >
   <crystal>
    <varray name="basis" >
     <v>       7.09105799       0.00000000       0.00000000 </v>
     <v>       0.00000000       3.54552899       0.00000000 </v>
     <v>       0.00000000       0.00000000       3.54552899 </v>
    </varray>
    <i name="volume">     89.14010044 </i>
    <varray name="rec_basis" >
     <v>       0.14102268       0.00000000       0.00000000 </v>
     <v>       0.00000000       0.28204536       0.00000000 </v>
     <v>       0.00000000       0.00000000       0.28204536 </v>
    </varray>
   </crystal>
   <varray name="positions" >
    <v>       0.02144264       0.97491819       0.90442940 </v>
    <v>       0.46337746       0.01091011       0.97509821 </v>
    <v>       0.32554024       0.48567553       0.49997068 </v>
    <v>       0.68963966       0.52849617       0.62050171 </v>
   </varray>
  </structure>
  <varray name="primitive_index" >
   <v type="int" >        1 </v>
   <v type="int" >        2 </v>
   <v type="int" >        3 </v>
   <v type="int" >        4 </v>
  </varray>
 </primitive_cell>
 <kpoints>
  <generation param="Monkhorst-Pack">
   <v type="int" name="divisions">       2        2        2 </v>
   <v name="usershift">      0.00000000       0.00000000       0.00000000 </v>
   <v name="genvec1">      0.50000000       0.00000000       0.00000000 </v>
   <v name="genvec2">      0.00000000       0.50000000       0.00000000 </v>
   <v name="genvec3">      0.00000000       0.00000000       0.50000000 </v>
   <v name="shift">      0.50000000       0.50000000       0.50000000 </v>
  </generation>
  <varray name="kpointlist" >
   <v>       0.25000000       0.25000000       0.25000000 </v>
   <v>       0.25000000      -0.25000000       0.25000000 </v>
   <v>       0.25000000      -0.25000000      -0.25000000 </v>
   <v>       0.25000000       0.25000000      -0.25000000 </v>
  </varray>
  <varray name="weights" >
   <v>       0.25000000 </v>
   <v>       0.25000000 </v>
   <v>       0.25000000 </v>
   <v>       0.25000000 </v>
  </varray>
 </kpoints>
 <parameters>
  <separator name="general" >
   <i type="string" name="SYSTEM">Al, 4 atoms</i>
   <i type="logical" name="LCOMPAT"> F  </i>
  </separator>
  <separator name="electronic" >
   <i type="string" name="PREC">normal</i>
   <i name="ENMAX">    240.30000000</i>
   <i name="ENAUG">    291.05200000</i>
   <i name="EDIFF">      0.00010000</i>
   <i type="int" name="IALGO">    48</i>
   <i type="int" name="IWAVPR">    12</i>
   <i type="int" name="NBANDS">    12</i>
   <i type="int" name="NBANDSLOW">    -1</i>
   <i type="int" name="NBANDSHIGH">    -1</i>
   <i name="NELECT">     12.00000000</i>
   <i type="int" name="TURBO">     0</i>
   <i type="int" name="IRESTART">     0</i>
   <i type="int" name="NREBOOT">     0</i>
   <i type="int" name="NMIN">     0</i>
   <i name="EREF">      0.00000000</i>
   <separator name="electronic smearing" >
    <i type="int" name="ISMEAR">    -1</i>
    <i name="SIGMA">      0.07927600</i>
    <i name="KSPACING">      0.50000000</i>
    <i type="logical" name="KGAMMA"> T  </i>
    <i type="logical" name="KBLOWUP"> T  </i>
   </separator>
   <separator name="electronic projectors" >
    <i type="logical" name="LREAL"> F  </i>
    <v name="ROPT">      0.00000000</v>
    <i type="int" name="LMAXPAW">  -100</i>
    <i type="int" name="LMAXMIX">     2</i>
    <i type="logical" name="NLSPLINE"> F  </i>
   </separator>
   <separator name="electronic startup" >
    <i type="int" name="ISTART">     0</i>
    <i type="int" name="ICHARG">     2</i>
    <i type="int" name="INIWAV">     1</i>
   </separator>
   <separator name="electronic spin" >
    <i type="int" name="ISPIN">     1</i>
    <i type="logical" name="LNONCOLLINEAR"> F  </i>
    <v name="MAGMOM">      1.00000000      1.00000000      1.00000000      1.00000000</v>
    <i name="NUPDOWN">     -1.00000000</i>
    <i type="logical" name="LSORBIT"> F  </i>
    <v name="SAXIS">      0.00000000      0.00000000      1.00000000</v>
    <i type="logical" name="LSPIRAL"> F  </i>
    <v name="QSPIRAL">      0.00000000      0.00000000      0.00000000</v>
    <i type="logical" name="LZEROZ"> F  </i>
   </separator>
   <separator name="electronic exchange-correlation" >
    <i type="logical" name="LASPH"> F  </i>
    <i type="logical" name="LMETAGGA"> F  </i>
   </separator>
   <separator name="electronic convergence" >
    <i type="int" name="NELM">    60</i>
    <i type="int" name="NELMDL">     0</i>
    <i type="int" name="NELMIN">     2</i>
    <i name="ENINI">    240.30000000</i>
    <separator name="electronic convergence detail" >
     <i type="logical" name="LDIAG"> T  </i>
     <i type="logical" name="LSUBROT"> F  </i>
     <i name="WEIMIN">      0.00100000</i>
     <i name="EBREAK">      0.00000208</i>
     <i name="DEPER">      0.30000000</i>
     <i type="int" name="NRMM">     4</i>
     <i name="TIME">      0.40000000</i>
    </separator>
   </separator>
   <separator name="electronic mixer" >
    <i name="AMIX">      0.40000000</i>
    <i name="BMIX">      1.00000000</i>
    <i name="AMIN">      0.10000000</i>
    <i name="AMIX_MAG">      1.60000000</i>
    <i name="BMIX_MAG">      1.00000000</i>
    <separator name="electronic mixer details" >
     <i type="int" name="IMIX">     4</i>
     <i type="logical" name="MIXFIRST"> F  </i>
     <i type="int" name="MAXMIX">    60</i>
     <i name="WC">    100.00000000</i>
     <i type="int" name="INIMIX">     1</i>
     <i type="int" name="MIXPRE">     1</i>
     <i type="int" name="MREMOVE">     5</i>
    </separator>
   </separator>
   <separator name="electronic dipolcorrection" >
    <i type="logical" name="LDIPOL"> F  </i>
    <i type="logical" name="LMONO"> F  </i>
    <i type="int" name="IDIPOL">     0</i>
    <i name="EPSILON">      1.00000000</i>
    <v name="DIPOL">   -100.00000000   -100.00000000   -100.00000000</v>
    <i name="EFIELD">      0.00000000</i>
   </separator>
  </separator>
  <separator name="grids" >
   <i type="int" name="NGX">    28</i>
   <i type="int" name="NGY">    14</i>
   <i type="int" name="NGZ">    14</i>
   <i type="int" name="NGXF">    56</i>
   <i type="int" name="NGYF">    28</i>
   <i type="int" name="NGZF">    28</i>
   <i type="logical" name="ADDGRID"> F  </i>
  </separator>
  <separator name="ionic" >
   <i type="int" name="NSW">   100</i>
   <i type="int" name="IBRION">     0</i>
   <i type="int" name="MDALGO">     0</i>
   <i type="int" name="ISIF">     1</i>
   <i name="PSTRESS">      0.00000000</i>
   <i name="EDIFFG">      0.00100000</i>
   <i type="int" name="NFREE">     0</i>
   <i name="POTIM">      2.00000000</i>
   <i name="SMASS">      1.00000000</i>
   <i name="SCALEE">      1.00000000</i>
  </separator>
  <separator name="ionic md" >
   <i name="TEBEG">    920.00000000</i>
   <i name="TEEND">    920.00000000</i>
   <i type="int" name="NBLOCK">     5</i>
   <i type="int" name="KBLOCK">     1</i>
   <i type="int" name="NPACO">   256</i>
   <i name="APACO">     10.00000000</i>
  </separator>
  <separator name="symmetry" >
   <i type="int" name="ISYM">     0</i>
   <i name="SYMPREC">      0.00001000</i>
  </separator>
  <separator name="dos" >
   <i type="int" name="LORBIT">     0</i>
   <v name="RWIGS">     -1.00000000</v>
   <i type="int" name="NEDOS">   301</i>
   <i name="EMIN">     10.00000000</i>
   <i name="EMAX">    -10.00000000</i>
   <i name="EFERMI">      0.00000000</i>
  </separator>
  <separator name="writing" >
   <i type="int" name="NWRITE">     0</i>
   <i type="logical" name="LWAVE"> F  </i>
   <i type="logical" name="LDOWNSAMPLE"> F  </i>
   <i type="logical" name="LCHARG"> F  </i>
   <i type="logical" name="LPARD"> F  </i>
   <i type="logical" name="LVTOT"> F  </i>
   <i type="logical" name="LVHAR"> F  </i>
   <i type="logical" name="LELF"> F  </i>
   <i type="logical" name="LOPTICS"> F  </i>
   <v name="STM">      0.00000000      0.00000000      0.00000000      0.00000000      0.00000000      0.00000000      0.00000000</v>
  </separator>
  <separator name="performance" >
   <i type="int" name="NPAR">     4</i>
   <i type="int" name="NSIM">     4</i>
   <i type="int" name="NBLK">    -1</i>
   <i type="logical" name="LPLANE"> T  </i>
   <i type="logical" name="LSCALAPACK"> T  </i>
   <i type="logical" name="LSCAAWARE"> F  </i>
   <i type="logical" name="LSCALU"> F  </i>
   <i type="logical" name="LASYNC"> F  </i>
   <i type="logical" name="LORBITALREAL"> F  </i>
  </separator>
  <separator name="miscellaneous" >
   <i type="int" name="IDIOT">     3</i>
   <i type="int" name="PHON_NSTRUCT">    -1</i>
   <i type="logical" name="LMUSIC"> F  </i>
   <v name="POMASS">     26.98100000</v>
   <v name="DARWINR">      0.00000000</v>
   <v name="DARWINV">      1.00000000</v>
   <i type="logical" name="LCORR"> T  </i>
  </separator>
  <i type="logical" name="GGA_COMPAT"> T  </i>
  <i type="logical" name="LBERRY"> F  </i>
  <i type="int" name="ICORELEVEL">     0</i>
  <i type="logical" name="LDAU"> F  </i>
  <i type="int" name="I_CONSTRAINED_M">     0</i>
  <separator name="electronic exchange-correlation" >
   <i type="string" name="GGA">--</i>
   <i type="int" name="VOSKOWN">     0</i>
   <i type="logical" name="LHFCALC"> F  </i>
   <i type="string" name="PRECFOCK"></i>
   <i type="logical" name="LSYMGRAD"> F  </i>
   <i type="logical" name="LHFONE"> F  </i>
   <i type="logical" name="LRHFCALC"> F  </i>
   <i type="logical" name="LTHOMAS"> F  </i>
   <i type="logical" name="LMODELHF"> F  </i>
   <i type="logical" name="LFOCKACE"> F  </i>
   <i name="ENCUT4O">     -1.00000000</i>
   <i type="int" name="EXXOEP">     0</i>
   <i type="int" name="FOURORBIT">     0</i>
   <i name="AEXX">      0.00000000</i>
   <i name="HFALPHA">      0.00000000</i>
   <i name="MCALPHA">      0.00000000</i>
   <i name="ALDAX">      1.00000000</i>
   <i name="AGGAX">      1.00000000</i>
   <i name="ALDAC">      1.00000000</i>
   <i name="AGGAC">      1.00000000</i>
   <i type="int" name="NKREDX">     1</i>
   <i type="int" name="NKREDY">     1</i>
   <i type="int" name="NKREDZ">     1</i>
   <i type="logical" name="SHIFTRED"> F  </i>
   <i type="logical" name="ODDONLY"> F  </i>
   <i type="logical" name="EVENONLY"> F  </i>
   <i type="int" name="LMAXFOCK">     0</i>
   <i type="int" name="NMAXFOCKAE">     0</i>
   <i type="logical" name="LFOCKAEDFT"> F  </i>
   <i name="HFSCREEN">      0.00000000</i>
   <i name="HFSCREENC">      0.00000000</i>
   <i type="int" name="NBANDSGWLOW">     0</i>
  </separator>
  <separator name="vdW DFT" >
   <i type="logical" name="LUSE_VDW"> F  </i>
   <i name="Zab_VDW">     -0.84910000</i>
   <i name="PARAM1">      0.12340000</i>
   <i name="PARAM2">      1.00000000</i>
   <i name="PARAM3">      0.00000000</i>
  </separator>
  <separator name="model GW" >
   <i type="int" name="MODEL_GW">     0</i>
   <i name="MODEL_EPS0">     13.37101507</i>
   <i name="MODEL_ALPHA">      1.00000000</i>
  </separator>
  <separator name="linear response parameters" >
   <i type="logical" name="LEPSILON"> F  </i>
   <i type="logical" name="LRPA"> F  </i>
   <i type="logical" name="LNABLA"> F  </i>
   <i type="logical" name="LVEL"> F  </i>
   <i name="CSHIFT">      0.10000000</i>
   <i name="OMEGAMAX">     -1.00000000</i>
   <i name="DEG_THRESHOLD">      0.00200000</i>
   <i name="RTIME">     -0.10000000</i>
   <i name="WPLASMAI">      0.00000000</i>
   <v name="DFIELD">      0.00000000      0.00000000      0.00000000</v>
   <v name="WPLASMA">      0.00000000      0.00000000      0.00000000      0.00000000      0.00000000      0.00000000      0.00000000      0.00000000      0.00000000</v>
  </separator>
  <separator name="orbital magnetization" >
   <i type="logical" name="NUCIND"> F  </i>
   <v name="MAGPOS">      0.00000000      0.00000000      0.00000000</v>
   <i type="logical" name="LNICSALL"> T  </i>
   <i type="logical" name="ORBITALMAG"> F  </i>
   <i type="logical" name="LMAGBLOCH"> F  </i>
   <i type="logical" name="LCHIMAG"> F  </i>
   <i type="logical" name="LGAUGE"> T  </i>
   <i type="int" name="MAGATOM">     0</i>
   <v name="MAGDIPOL">      0.00000000      0.00000000      0.00000000</v>
   <v name="AVECCONST">      0.00000000      0.00000000      0.00000000</v>
  </separator>
  <separator name="response functions" >
   <i type="logical" name="LFINITE_TEMPERATURE"> F  </i>
   <i type="logical" name="LADDER"> F  </i>
   <i type="logical" name="LRPAFORCE"> F  </i>
   <i type="logical" name="LFXC"> F  </i>
   <i type="logical" name="LHARTREE"> T  </i>
   <i type="int" name="IBSE">     0</i>
   <v type="int" name="KPOINT">    -1     0     0     0</v>
   <i type="logical" name="LTCTC"> F  </i>
   <i type="logical" name="LTCTE"> F  </i>
   <i type="logical" name="LTETE"> F  </i>
   <i type="logical" name="LTRIPLET"> F  </i>
   <i type="logical" name="LFXCEPS"> F  </i>
   <i type="logical" name="LFXHEG"> F  </i>
   <i type="int" name="NATURALO">     2</i>
   <i type="logical" name="LHOLEGF"> F  </i>
   <i type="logical" name="L2ORDER"> F  </i>
   <i type="logical" name="LDMP1"> F  </i>
   <i type="logical" name="LMP2LT"> F  </i>
   <i type="logical" name="LSMP2LT"> F  </i>
   <i type="logical" name="LGWLF"> F  </i>
   <i name="ENCUTGW">     -2.00000000</i>
   <i name="ENCUTGWSOFT">     -2.00000000</i>
   <i name="ENCUTLF">     -1.00000000</i>
   <i type="logical" name="LESF_SPLINES"> F  </i>
   <i type="int" name="LMAXMP2">    -1</i>
   <i name="SCISSOR">      0.00000000</i>
   <i type="int" name="NOMEGA">     0</i>
   <i type="int" name="NOMEGAR">     0</i>
   <i type="int" name="NBANDSGW">    -1</i>
   <i type="int" name="NBANDSO">    -1</i>
   <i type="int" name="NBANDSV">    -1</i>
   <i type="int" name="NELMGW">     1</i>
   <i type="int" name="NELMHF">     1</i>
   <i type="int" name="DIM">     3</i>
   <i type="int" name="IESPILON">     4</i>
   <i type="int" name="ANTIRES">     0</i>
   <i name="OMEGAMAX">    -30.00000000</i>
   <i name="OMEGAMIN">    -30.00000000</i>
   <i name="OMEGATL">   -200.00000000</i>
   <i type="int" name="OMEGAGRID">     0</i>
   <i name="CSHIFT">     -0.10000000</i>
   <i type="logical" name="LSELFENERGY"> F  </i>
   <i type="logical" name="LSPECTRAL"> F  </i>
   <i type="logical" name="LSPECTRALGW"> F  </i>
   <i type="logical" name="LSINGLES"> F  </i>
   <i type="logical" name="LFERMIGW"> F  </i>
   <i type="logical" name="ODDONLYGW"> F  </i>
   <i type="logical" name="EVENONLYGW"> F  </i>
   <i type="int" name="NKREDLFX">     1</i>
   <i type="int" name="NKREDLFY">     1</i>
   <i type="int" name="NKREDLFZ">     1</i>
   <i type="int" name="MAXMEM">  2800</i>
   <i type="int" name="TELESCOPE">     0</i>
   <i type="int" name="NTAUPAR">    -1</i>
   <i type="int" name="NOMEGAPAR">    -1</i>
   <i name="DAMP_NEWTON">      0.80000001</i>
   <i name="LAMBDA">      1.00000000</i>
  </separator>
  <separator name="External order field" >
   <i name="OFIELD_KAPPA">      0.00000000</i>
   <v name="OFIELD_K">      0.00000000      0.00000000      0.00000000</v>
   <i name="OFIELD_Q6_NEAR">      0.00000000</i>
   <i name="OFIELD_Q6_FAR">      0.00000000</i>
   <i name="OFIELD_A">      0.00000000</i>
  </separator>
  <separator name="optional k-points parameters" >
   <i type="int" name="KPOINTS_OPT_MODE">     1</i>
   <i type="logical" name="LKPOINTS_OPT"> F  </i>
  </separator>
 </parameters>
 <atominfo>
  <atoms>       4 </atoms>
  <types>       1 </types>
  <array name="atoms" >
   <dimension dim="1">ion</dimension>
   <field type="string">element</field>
   <field type="int">atomtype</field>
   <set>
    <rc><c>Al</c><c>   1</c></rc>
    <rc><c>Al</c><c>   1</c></rc>
    <rc><c>Al</c><c>   1</c></rc>
    <rc><c>Al</c><c>   1</c></rc>
   </set>
  </array>
  <array name="atomtypes" >
   <dimension dim="1">type</dimension>
   <field type="int">atomspertype</field>
   <field type="string">element</field>
   <field>mass</field>
   <field>valence</field>
   <field type="string">pseudopotential</field>
   <set>
    <rc><c>   4</c><c>Al</c><c>     26.98100000</c><c>      3.00000000</c><c>  PAW_PBE Al 04Jan2001                  </c></rc>
   </set>
  </array>
 </atominfo>
 <structure name="initialpos" >
  <crystal>
   <varray name="basis" >
    <v>       7.09105799       0.00000000       0.00000000 </v>
    <v>       0.00000000       3.54552899       0.00000000 </v>
    <v>       0.00000000       0.00000000       3.54552899 </v>
   </varray>
   <i name="volume">     89.14010044 </i>
   <varray name="rec_basis" >
    <v>       0.14102268       0.00000000       0.00000000 </v>
    <v>       0.00000000       0.28204536       0.00000000 </v>
    <v>       0.00000000       0.00000000       0.28204536 </v>
   </varray>
  </crystal>
  <varray name="positions" >
   <v>       0.02144264       0.97491819       0.90442940 </v>
   <v>       0.46337746       0.01091011       0.97509821 </v>
   <v>       0.32554024       0.48567553       0.49997068 </v>
   <v>       0.68963966       0.52849617       0.62050171 </v>
  </varray>
  <varray name="velocities" >
   <v>       0.00160502       0.00022399      -0.00207788 </v>
   <v>      -0.00014688       0.00040562       0.00141991 </v>
   <v>      -0.00430035       0.00102135       0.00026150 </v>
   <v>       0.00284221      -0.00165097       0.00039647 </v>
  </varray>
 </structure>
 <calculation>
  <scstep>
   <time name="diag">    0.00    0.00</time>
   <time name="diis">    0.00    0.00</time>
   <time name="orth">    0.00    0.00</time>
   <time name="total">    0.01    0.01</time>
   <energy>
    <i name="alphaZ">     -0.60288196 </i>
    <i name="ewald">   -250.60123196 </i>
    <i name="hartreedc">    -11.29252684 </i>
    <i name="XCdc">   -106.68117382 </i>
    <i name="pawpsdc">    264.80062850 </i>
    <i name="pawaedc">   -136.98248303 </i>
    <i name="eentropy">     -0.04458855 </i>
    <i name="bandstr">     44.85245219 </i>
    <i name="atom">    214.14321246 </i>
    <i name="e_fr_energy">     17.59140699 </i>
    <i name="e_wo_entrp">     17.63599554 </i>
    <i name="e_0_energy">     17.61370126 </i>
   </energy>
  </scstep>
  <scstep>
   <time name="diag">    0.00    0.00</time>
   <time name="diis">    0.00    0.00</time>
   <time name="orth">    0.00    0.00</time>
   <time name="total">    0.01    0.01</time>
   <energy>
    <i name="e_fr_energy">     -7.20379052 </i>
    <i name="e_wo_entrp">     -7.13941082 </i>
    <i name="e_0_energy">     -7.17160067 </i>
   </energy>
  </scstep>
  <scstep>
   <time name="diag">    0.00    0.00</time>
   <time name="diis">    0.00    0.00</time>
   <time name="orth">    0.00    0.00</time>
   <time name="total">    0.01    0.01</time>
   <energy>
    <i name="e_fr_energy">    -12.06406545 </i>
    <i name="e_wo_entrp">    -11.98538008 </i>
    <i name="e_0_energy">    -12.02472277 </i>
   </energy>
  </scstep>
  <scstep>
   <time name="diag">    0.00    0.00</time>
   <time name="diis">    0.00    0.00</time>
   <time name="orth">    0.00    0.00</time>
   <time name="total">    0.01    0.01</time>
   <energy>
    <i name="e_fr_energy">    -12.94421069 </i>
    <i name="e_wo_entrp">    -12.88686303 </i>
    <i name="e_0_energy">    -12.91553686 </i>
   </energy>
  </scstep>
  <scstep>
   <time name="diag">    0.00    0.00</time>
   <time name="diis">    0.00    0.00</time>
   <time name="orth">    0.00    0.00</time>
   <time name="total">    0.01    0.01</time>
   <energy>
    <i name="e_fr_energy">    -13.09439674 </i>
    <i name="e_wo_entrp">    -13.03219478 </i>
    <i name="e_0_energy">    -13.06329576 </i>
   </energy>
  </scstep>
  <scstep>
   <time name="diag">    0.00    0.00</time>
   <time name="diis">    0.00    0.00</time>
   <time name="orth">    0.00    0.00</time>
   <time name="total">    0.01    0.01</time>
   <energy>
    <i name="e_fr_energy">    -13.12948628 </i>
    <i name="e_wo_entrp">    -13.06319906 </i>
    <i name="e_0_energy">    -13.09634267 </i>
   </energy>
  </scstep>
  <scstep>
   <time name="diag">    0.00    0.00</time>
   <time name="diis">    0.00    0.00</time>
   <time name="orth">    0.00    0.00</time>
   <time name="total">    0.01    0.01</time>
   <energy>
    <i name="e_fr_energy">    -13.13861862 </i>
    <i name="e_wo_entrp">    -13.06719042 </i>
    <i name="e_0_energy">    -13.10290452 </i>
   </energy>
  </scstep>
  <scstep>
   <time name="diag">    0.00    0.00</time>
   <time name="diis">    0.00    0.00</time>
   <time name="orth">    0.00    0.00</time>
   <time name="total">    0.01    0.01</time>
   <energy>
    <i name="e_fr_energy">    -13.14111367 </i>
    <i name="e_wo_entrp">    -13.06773022 </i>
    <i name="e_0_energy">    -13.10442194 </i>
   </energy>
  </scstep>
  <scstep>
   <time name="diag">    0.00    0.00</time>
   <time name="diis">    0.01    0.01</time>
   <time name="orth">    0.00    0.00</time>
   <time name="total">    0.01    0.01</time>
   <energy>
    <i name="e_fr_energy">    -13.14160368 </i>
    <i name="e_wo_entrp">    -13.06784555 </i>
    <i name="e_0_energy">    -13.10472461 </i>
   </energy>
  </scstep>
  <scstep>
   <time name="diag">    0.00    0.00</time>
   <time name="diis">    0.01    0.01</time>
   <time name="orth">    0.00    0.00</time>
   <time name="total">    0.01    0.01</time>
   <energy>
    <i name="e_fr_energy">    -13.14173850 </i>
    <i name="e_wo_entrp">    -13.06788418 </i>
    <i name="e_0_energy">    -13.10481134 </i>
   </energy>
  </scstep>
  <scstep>
   <time name="diag">    0.00    0.00</time>
   <time name="diis">    0.00    0.00</time>
   <time name="orth">    0.00    0.00</time>
   <time name="total">    0.01    0.01</time>
   <energy>
    <i name="e_fr_energy">    -13.14175859 </i>
    <i name="e_wo_entrp">    -13.06789051 </i>
    <i name="e_0_energy">    -13.10482455 </i>
   </energy>
  </scstep>
  <scstep>
   <time name="diag">    0.00    0.00</time>
   <time name="diis">    0.00    0.00</time>
   <time name="orth">    0.00    0.00</time>
   <time name="total">    0.01    0.01</time>
   <energy>
    <i name="e_fr_energy">    -13.14176382 </i>
    <i name="e_wo_entrp">    -13.06789203 </i>
    <i name="e_0_energy">    -13.10482792 </i>
   </energy>
  </scstep>
  <scstep>
   <time name="diag">    0.00    0.00</time>
   <time name="diis">    0.01    0.01</time>
   <time name="orth">    0.00    0.00</time>
   <time name="total">    0.02    0.02</time>
   <energy>
    <i name="e_fr_energy">    -12.33149664 </i>
    <i name="e_wo_entrp">    -12.25250821 </i>
    <i name="e_0_energy">    -12.29200243 </i>
   </energy>
  </scstep>
  <scstep>
   <time name="diag">    0.00    0.00</time>
   <time name="diis">    0.01    0.01</time>
   <time name="orth">    0.00    0.00</time>
   <time name="total">    0.02    0.02</time>
   <energy>
    <i name="e_fr_energy">    -12.28938715 </i>
    <i name="e_wo_entrp">    -12.20893829 </i>
    <i name="e_0_energy">    -12.24916272 </i>
   </energy>
  </scstep>
  <scstep>
   <time name="diag">    0.00    0.00</time>
   <time name="diis">    0.01    0.01</time>
   <time name="orth">    0.00    0.00</time>
   <time name="total">    0.01    0.01</time>
   <energy>
    <i name="e_fr_energy">    -12.28226345 </i>
    <i name="e_wo_entrp">    -12.20153735 </i>
    <i name="e_0_energy">    -12.24190040 </i>
   </energy>
  </scstep>
  <scstep>
   <time name="diag">    0.00    0.00</time>
   <time name="diis">    0.01    0.01</time>
   <time name="orth">    0.00    0.00</time>
   <time name="total">    0.01    0.01</time>
   <energy>
    <i name="e_fr_energy">    -12.28186304 </i>
    <i name="e_wo_entrp">    -12.20145722 </i>
    <i name="e_0_energy">    -12.24166013 </i>
   </energy>
  </scstep>
  <scstep>
   <time name="diag">    0.00    0.00</time>
   <time name="diis">    0.00    0.00</time>
   <time name="orth">    0.00    0.00</time>
   <time name="total">    0.01    0.01</time>
   <energy>
    <i name="alphaZ">     -0.60288196 </i>
    <i name="ewald">   -250.60123196 </i>
    <i name="hartreedc">    -13.97760520 </i>
    <i name="XCdc">   -106.34908334 </i>
    <i name="pawpsdc">    586.17084839 </i>
    <i name="pawaedc">   -458.42116191 </i>
    <i name="eentropy">     -0.08010121 </i>
    <i name="bandstr">     17.43624118 </i>
    <i name="atom">    214.14321246 </i>
    <i name="e_fr_energy">    -12.28176356 </i>
    <i name="e_wo_entrp">    -12.20166234 </i>
    <i name="e_0_energy">    -12.24171295 </i>
   </energy>
  </scstep>
  <structure>
   <crystal>
    <varray name="basis" >
     <v>       7.09105799       0.00000000       0.00000000 </v>
     <v>       0.00000000       3.54552899       0.00000000 </v>
     <v>       0.00000000       0.00000000       3.54552899 </v>
    </varray>
    <i name="volume">     89.14010044 </i>
    <varray name="rec_basis" >
     <v>       0.14102268       0.00000000       0.00000000 </v>
     <v>       0.00000000       0.28204536       0.00000000 </v>
     <v>       0.00000000       0.00000000       0.28204536 </v>
    </varray>
   </crystal>
   <varray name="positions" >
    <v>       0.02144264       0.97491819       0.90442940 </v>
    <v>       0.46337746       0.01091011       0.97509821 </v>
    <v>       0.32554024       0.48567553       0.49997068 </v>
    <v>       0.68963966       0.52849617       0.62050171 </v>
   </varray>
  </structure>
  <varray name="forces" >
   <v>       0.36557462       0.06954466      -0.10371000 </v>
   <v>      -0.12620213      -0.19163019       0.72960299 </v>
   <v>      -0.37077131       0.32301430      -0.33710625 </v>
   <v>       0.13199616      -0.20058358      -0.28679568 </v>
  </varray>
  <varray name="stress" >
   <v>    -192.66528441      -7.33924342       6.72656787 </v>
   <v>      -7.33924342     173.44031880      -2.56608433 </v>
   <v>       6.72656787      -2.56608433      38.98857758 </v>
  </varray>
  <energy>
   <i name="e_fr_energy">    -12.28176356 </i>
   <i name="e_wo_entrp">    -12.20166234 </i>
   <i name="e_0_energy">    -12.24171295 </i>
   <i name="kinetic">      0.57136818 </i>
   <i name="lattice kinetic">      0.00000000 </i>
   <i name="nosepot">      0.00807668 </i>
   <i name="nosekinetic">      0.00001576 </i>
   <i name="total">    -11.70230293 </i>
  </energy>
  <time name="totalsc">    0.18    0.18</time>
 </calculation>
 <calculation>
  <scstep>
   <time name="diag">    0.00    0.00</time>
   <time name="diis">    0.01    0.01</time>
   <time name="orth">    0.00    0.00</time>
   <time name="total">    0.01    0.01</time>
   <energy>
    <i name="alphaZ">     -0.60288196 </i>
    <i name="ewald">   -251.66578997 </i>
    <i name="hartreedc">    -13.19214738 </i>
    <i name="XCdc">   -106.36549425 </i>
    <i name="pawpsdc">    582.30563832 </i>
    <i name="pawaedc">   -454.55708896 </i>
    <i name="eentropy">     -0.08225776 </i>
    <i name="bandstr">     17.71261977 </i>
    <i name="atom">    214.14321246 </i>
    <i name="e_fr_energy">    -12.30418973 </i>
    <i name="e_wo_entrp">    -12.22193197 </i>
    <i name="e_0_energy">    -12.26306085 </i>
   </energy>
  </scstep>
  <scstep>
   <time name="diag">    0.00    0.00</time>
   <time name="diis">    0.01    0.01</time>
   <time name="orth">    0.00    0.00</time>
   <time name="total">    0.01    0.01</time>
   <energy>
    <i name="e_fr_energy">    -12.30277431 </i>
    <i name="e_wo_entrp">    -12.22066484 </i>
    <i name="e_0_energy">    -12.26171958 </i>
   </energy>
  </scstep>
  <scstep>
   <time name="diag">    0.00    0.00</time>
   <time name="diis">    0.01    0.01</time>
   <time name="orth">    0.00    0.00</time>
   <time name="total">    0.01    0.01</time>
   <energy>
    <i name="e_fr_energy">    -12.30285762 </i>
    <i name="e_wo_entrp">    -12.22088456 </i>
    <i name="e_0_energy">    -12.26187109 </i>
   </energy>
  </scstep>
  <scstep>
   <time name="diag">    0.00    0.00</time>
   <time name="diis">    0.00    0.00</time>
   <time name="orth">    0.00    0.00</time>
   <time name="total">    0.01    0.01</time>
   <energy>
    <i name="alphaZ">     -0.60288196 </i>
    <i name="ewald">   -251.66578997 </i>
    <i name="hartreedc">    -13.10232535 </i>
    <i name="XCdc">   -106.37382245 </i>
    <i name="pawpsdc">    569.82290337 </i>
    <i name="pawaedc">   -442.06749479 </i>
    <i name="eentropy">     -0.08198005 </i>
    <i name="bandstr">     17.62531278 </i>
    <i name="atom">    214.14321246 </i>
    <i name="e_fr_energy">    -12.30286597 </i>
    <i name="e_wo_entrp">    -12.22088592 </i>
    <i name="e_0_energy">    -12.26187595 </i>
   </energy>
  </scstep>
  <structure>
   <crystal>
    <varray name="basis" >
     <v>       7.09105799       0.00000000       0.00000000 </v>
     <v>       0.00000000       3.54552899       0.00000000 </v>
     <v>       0.00000000       0.00000000       3.54552899 </v>
    </varray>
    <i name="volume">     89.14010044 </i>
    <varray name="rec_basis" >
     <v>       0.14102268       0.00000000       0.00000000 </v>
     <v>       0.00000000       0.28204536       0.00000000 </v>
     <v>       0.00000000       0.00000000       0.28204536 </v>
    </varray>
   </crystal>
   <varray name="positions" >
    <v>       0.02312163       0.97517024       0.90230915 </v>
    <v>       0.46320507       0.01123844       0.97681251 </v>
    <v>       0.32116440       0.48682733       0.50009600 </v>
    <v>       0.69250891       0.52676398       0.62078233 </v>
   </varray>
  </structure>
  <varray name="forces" >
   <v>       0.39338912       0.07302282      -0.09654493 </v>
   <v>      -0.15252989      -0.18074243       0.65377628 </v>
   <v>      -0.19731246       0.28992691      -0.28468422 </v>
   <v>      -0.04469260      -0.18168357      -0.26977356 </v>
  </varray>
  <varray name="stress" >
   <v>    -204.90791252      -6.54226646       7.01653361 </v>
   <v>      -6.54226646     174.02615873      -2.70704609 </v>
   <v>       7.01653361      -2.70704609      34.71215778 </v>
  </varray>
  <energy>
   <i name="e_fr_energy">    -12.30286597 </i>
   <i name="e_wo_entrp">    -12.22088592 </i>
   <i name="e_0_energy">    -12.26187595 </i>
   <i name="kinetic">      0.59250140 </i>
   <i name="lattice kinetic">      0.00000000 </i>
   <i name="nosepot">      0.00808323 </i>
   <i name="nosekinetic">      0.00002355 </i>
   <i name="total">    -11.70225778 </i>
  </energy>
  <time name="totalsc">    0.07    0.07</time>
 </calculation>
 <calculation>
  <scstep>
   <time name="diag">    0.00    0.00</time>
   <time name="diis">    0.01    0.01</time>
   <time name="orth">    0.00    0.00</time>
   <time name="total">    0.01    0.01</time>
   <energy>
    <i name="alphaZ">     -0.60288196 </i>
    <i name="ewald">   -252.65280679 </i>
    <i name="hartreedc">    -12.28656481 </i>
    <i name="XCdc">   -106.40174590 </i>
    <i name="pawpsdc">    554.96238075 </i>
    <i name="pawaedc">   -427.19819089 </i>
    <i name="eentropy">     -0.08415027 </i>
    <i name="bandstr">     17.80383255 </i>
    <i name="atom">    214.14321246 </i>
    <i name="e_fr_energy">    -12.31691486 </i>
    <i name="e_wo_entrp">    -12.23276459 </i>
    <i name="e_0_energy">    -12.27483973 </i>
   </energy>
  </scstep>
  <scstep>
   <time name="diag">    0.00    0.00</time>
   <time name="diis">    0.00    0.00</time>
   <time name="orth">    0.00    0.00</time>
   <time name="total">    0.01    0.01</time>
   <energy>
    <i name="alphaZ">     -0.60288196 </i>
    <i name="ewald">   -252.65280679 </i>
    <i name="hartreedc">    -12.28186879 </i>
    <i name="XCdc">   -106.40145293 </i>
    <i name="pawpsdc">    560.93031924 </i>
    <i name="pawaedc">   -433.16683907 </i>
    <i name="eentropy">     -0.08418400 </i>
    <i name="bandstr">     17.79958791 </i>
    <i name="atom">    214.14321246 </i>
    <i name="e_fr_energy">    -12.31691392 </i>
    <i name="e_wo_entrp">    -12.23272992 </i>
    <i name="e_0_energy">    -12.27482192 </i>
   </energy>
  </scstep>
  <structure>
   <crystal>
    <varray name="basis" >
     <v>       7.09105799       0.00000000       0.00000000 </v>
     <v>       0.00000000       3.54552899       0.00000000 </v>
     <v>       0.00000000       0.00000000       3.54552899 </v>
    </varray>
    <i name="volume">     89.14010044 </i>
    <varray name="rec_basis" >
     <v>       0.14102268       0.00000000       0.00000000 </v>
     <v>       0.00000000       0.28204536       0.00000000 </v>
     <v>       0.00000000       0.00000000       0.28204536 </v>
    </varray>
   </crystal>
   <varray name="positions" >
    <v>       0.02487970       0.97545165       0.90015008 </v>
    <v>       0.46300200       0.01149375       0.97878995 </v>
    <v>       0.31674964       0.48809582       0.50010618 </v>
    <v>       0.69536866       0.52495878       0.62095379 </v>
   </varray>
  </structure>
  <varray name="forces" >
   <v>       0.42245822       0.07625772      -0.08845308 </v>
   <v>      -0.18301004      -0.16739507       0.57501399 </v>
   <v>      -0.05731587       0.25419691      -0.23625479 </v>
   <v>      -0.18260647      -0.16274537      -0.24820466 </v>
  </varray>
  <varray name="stress" >
   <v>    -216.45978385      -5.64489748       7.25824487 </v>
   <v>      -5.64489748     174.42108964      -2.85274222 </v>
   <v>       7.25824487      -2.85274222      30.85019417 </v>
  </varray>
  <energy>
   <i name="e_fr_energy">    -12.31691392 </i>
   <i name="e_wo_entrp">    -12.23272992 </i>
   <i name="e_0_energy">    -12.27482192 </i>
   <i name="kinetic">      0.60612306 </i>
   <i name="lattice kinetic">      0.00000000 </i>
   <i name="nosepot">      0.00834797 </i>
   <i name="nosekinetic">      0.00020613 </i>
   <i name="total">    -11.70223676 </i>
  </energy>
  <time name="totalsc">    0.04    0.04</time>
 </calculation>
 <calculation>
  <scstep>
   <time name="diag">    0.00    0.00</time>
   <time name="diis">    0.01    0.01</time>
   <time name="orth">    0.00    0.00</time>
   <time name="total">    0.01    0.01</time>
   <energy>
    <i name="alphaZ">     -0.60288196 </i>
    <i name="ewald">   -253.54990507 </i>
    <i name="hartreedc">    -11.51757511 </i>
    <i name="XCdc">   -106.42759512 </i>
    <i name="pawpsdc">    558.15464745 </i>
    <i name="pawaedc">   -430.38402897 </i>
    <i name="eentropy">     -0.08657414 </i>
    <i name="bandstr">     17.94565774 </i>
    <i name="atom">    214.14321246 </i>
    <i name="e_fr_energy">    -12.32504273 </i>
    <i name="e_wo_entrp">    -12.23846859 </i>
    <i name="e_0_energy">    -12.28175566 </i>
   </energy>
  </scstep>
  <scstep>
   <time name="diag">    0.00    0.00</time>
   <time name="diis">    0.00    0.00</time>
   <time name="orth">    0.00    0.00</time>
   <time name="total">    0.01    0.01</time>
   <energy>
    <i name="alphaZ">     -0.60288196 </i>
    <i name="ewald">   -253.54990507 </i>
    <i name="hartreedc">    -11.52040575 </i>
    <i name="XCdc">   -106.42719227 </i>
    <i name="pawpsdc">    556.05666625 </i>
    <i name="pawaedc">   -428.28626348 </i>
    <i name="eentropy">     -0.08657804 </i>
    <i name="bandstr">     17.94830101 </i>
    <i name="atom">    214.14321246 </i>
    <i name="e_fr_energy">    -12.32504685 </i>
    <i name="e_wo_entrp">    -12.23846880 </i>
    <i name="e_0_energy">    -12.28175782 </i>
   </energy>
  </scstep>
  <structure>
   <crystal>
    <varray name="basis" >
     <v>       7.09105799       0.00000000       0.00000000 </v>
     <v>       0.00000000       3.54552899       0.00000000 </v>
     <v>       0.00000000       0.00000000       3.54552899 </v>
    </varray>
    <i name="volume">     89.14010044 </i>
    <varray name="rec_basis" >
     <v>       0.14102268       0.00000000       0.00000000 </v>
     <v>       0.00000000       0.28204536       0.00000000 </v>
     <v>       0.00000000       0.00000000       0.28204536 </v>
    </varray>
   </crystal>
   <varray name="positions" >
    <v>       0.02672200       0.97576363       0.89795634 </v>
    <v>       0.46276216       0.01168137       0.98099798 </v>
    <v>       0.31232584       0.48946609       0.50002085 </v>
    <v>       0.69819001       0.52308892       0.62102483 </v>
   </varray>
  </structure>
  <varray name="forces" >
   <v>       0.45096043       0.07974621      -0.07657493 </v>
   <v>      -0.21870515      -0.15227284       0.49615514 </v>
   <v>       0.05937136       0.21724928      -0.19418005 </v>
   <v>      -0.29024966      -0.14463313      -0.22441263 </v>
  </varray>
  <varray name="stress" >
   <v>    -226.22407149      -4.78847610       7.34268669 </v>
   <v>      -4.78847610     174.48045616      -2.98713294 </v>
   <v>       7.34268669      -2.98713294      27.21444574 </v>
  </varray>
  <energy>
   <i name="e_fr_energy">    -12.32504685 </i>
   <i name="e_wo_entrp">    -12.23846880 </i>
   <i name="e_0_energy">    -12.28175782 </i>
   <i name="kinetic">      0.61345799 </i>
   <i name="lattice kinetic">      0.00000000 </i>
   <i name="nosepot">      0.00888581 </i>
   <i name="nosekinetic">      0.00058913 </i>
   <i name="total">    -11.70211391 </i>
  </energy>
  <time name="totalsc">    0.04    0.04</time>
 </calculation>
 <calculation>
  <scstep>
   <time name="diag">    0.00    0.00</time>
   <time name="diis">    0.01    0.01</time>
   <time name="orth">    0.00    0.00</time>
   <time name="total">    0.01    0.01</time>
   <energy>
    <i name="alphaZ">     -0.60288196 </i>
    <i name="ewald">   -254.34831674 </i>
    <i name="hartreedc">    -10.83684628 </i>
    <i name="XCdc">   -106.44991228 </i>
    <i name="pawpsdc">    551.36863539 </i>
    <i name="pawaedc">   -423.59235222 </i>
    <i name="eentropy">     -0.08914609 </i>
    <i name="bandstr">     18.07917843 </i>
    <i name="atom">    214.14321246 </i>
    <i name="e_fr_energy">    -12.32842930 </i>
    <i name="e_wo_entrp">    -12.23928320 </i>
    <i name="e_0_energy">    -12.28385625 </i>
   </energy>
  </scstep>
  <scstep>
   <time name="diag">    0.00    0.00</time>
   <time name="diis">    0.00    0.00</time>
   <time name="orth">    0.00    0.00</time>
   <time name="total">    0.01    0.01</time>
   <energy>
    <i name="alphaZ">     -0.60288196 </i>
    <i name="ewald">   -254.34831674 </i>
    <i name="hartreedc">    -10.84016272 </i>
    <i name="XCdc">   -106.44991055 </i>
    <i name="pawpsdc">    552.24968028 </i>
    <i name="pawaedc">   -424.47328011 </i>
    <i name="eentropy">     -0.08918435 </i>
    <i name="bandstr">     18.08241257 </i>
    <i name="atom">    214.14321246 </i>
    <i name="e_fr_energy">    -12.32843113 </i>
    <i name="e_wo_entrp">    -12.23924678 </i>
    <i name="e_0_energy">    -12.28383895 </i>
   </energy>
  </scstep>
  <structure>
   <crystal>
    <varray name="basis" >
     <v>       7.09105799       0.00000000       0.00000000 </v>
     <v>       0.00000000       3.54552899       0.00000000 </v>
     <v>       0.00000000       0.00000000       3.54552899 </v>
    </varray>
    <i name="volume">     89.14010044 </i>
    <varray name="rec_basis" >
     <v>       0.14102268       0.00000000       0.00000000 </v>
     <v>       0.00000000       0.28204536       0.00000000 </v>
     <v>       0.00000000       0.00000000       0.28204536 </v>
    </varray>
   </crystal>
   <varray name="positions" >
    <v>       0.02865341       0.97610745       0.89573370 </v>
    <v>       0.46247838       0.01180739       0.98340388 </v>
    <v>       0.30791814       0.49092266       0.49985720 </v>
    <v>       0.70095008       0.52116250       0.62100521 </v>
   </varray>
  </structure>
  <varray name="forces" >
   <v>       0.47581977       0.08348196      -0.05976249 </v>
   <v>      -0.25576660      -0.13662299       0.41765598 </v>
   <v>       0.15290650       0.18038798      -0.15873760 </v>
   <v>      -0.37208042      -0.12696295      -0.19889970 </v>
  </varray>
  <varray name="stress" >
   <v>    -234.80220092      -3.96255743       7.37300624 </v>
   <v>      -3.96255743     174.22944211      -3.10140290 </v>
   <v>       7.37300624      -3.10140290      23.98759055 </v>
  </varray>
  <energy>
   <i name="e_fr_energy">    -12.32843113 </i>
   <i name="e_wo_entrp">    -12.23924678 </i>
   <i name="e_0_energy">    -12.28383895 </i>
   <i name="kinetic">      0.61561032 </i>
   <i name="lattice kinetic">      0.00000000 </i>
   <i name="nosepot">      0.00970479 </i>
   <i name="nosekinetic">      0.00118148 </i>
   <i name="total">    -11.70193454 </i>
  </energy>
  <dos>
   <i name="efermi">      4.94496694 </i>
   <total>
    <array>
     <dimension dim="1">gridpoints</dimension>
     <dimension dim="2">spin</dimension>
     <field>energy</field>
     <field>total</field>
     <field>integrated</field>
     <set>
      <set comment="spin 1">
       <r>    -3.5711     0.0000     0.0000 </r>
       <r>    -3.5184     0.0000     0.0000 </r>
       <r>    -3.4657     0.0000     0.0000 </r>
       <r>    -3.4130     0.0123     0.0007 </r>
       <r>    -3.3603     0.0116     0.0013 </r>
       <r>    -3.3077     0.0226     0.0025 </r>
       <r>    -3.2550     0.0439     0.0048 </r>
       <r>    -3.2023     0.0850     0.0092 </r>
       <r>    -3.1496     0.1641     0.0179 </r>
       <r>    -3.0969     0.3149     0.0345 </r>
       <r>    -3.0442     0.5971     0.0659 </r>
       <r>    -2.9916     1.1075     0.1243 </r>
       <r>    -2.9389     1.9719     0.2282 </r>
       <r>    -2.8862     3.2684     0.4004 </r>
       <r>    -2.8335     4.8237     0.6545 </r>
       <r>    -2.7808     6.0252     0.9719 </r>
       <r>    -2.7281     6.1347     1.2951 </r>
       <r>    -2.6755     5.0746     1.5624 </r>
       <r>    -2.6228     3.5244     1.7481 </r>
       <r>    -2.5701     2.1611     1.8620 </r>
       <r>    -2.5174     1.2254     1.9265 </r>
       <r>    -2.4647     0.6642     1.9615 </r>
       <r>    -2.4121     0.3512     1.9800 </r>
       <r>    -2.3594     0.1833     1.9897 </r>
       <r>    -2.3067     0.0950     1.9947 </r>
       <r>    -2.2540     0.0491     1.9973 </r>
       <r>    -2.2013     0.0253     1.9986 </r>
       <r>    -2.1486     0.0130     1.9993 </r>
       <r>    -2.0960     0.0000     2.0000 </r>
       <r>    -2.0433     0.0000     2.0000 </r>
       <r>    -1.9906     0.0000     2.0000 </r>
       <r>    -1.9379     0.0000     2.0000 </r>
       <r>    -1.8852     0.0000     2.0000 </r>
       <r>    -1.8326     0.0000     2.0000 </r>
       <r>    -1.7799     0.0000     2.0000 </r>
       <r>    -1.7272     0.0000     2.0000 </r>
       <r>    -1.6745     0.0000     2.0000 </r>
       <r>    -1.6218     0.0000     2.0000 </r>
       <r>    -1.5691     0.0000     2.0000 </r>
       <r>    -1.5165     0.0057     2.0003 </r>
       <r>    -1.4638     0.0083     2.0007 </r>
       <r>    -1.4111     0.0132     2.0014 </r>
       <r>    -1.3584     0.0257     2.0028 </r>
       <r>    -1.3057     0.0498     2.0054 </r>
       <r>    -1.2530     0.0965     2.0105 </r>
       <r>    -1.2004     0.1861     2.0203 </r>
       <r>    -1.1477     0.3565     2.0391 </r>
       <r>    -1.0950     0.6736     2.0746 </r>
       <r>    -1.0423     1.2410     2.1399 </r>
       <r>    -0.9896     2.1836     2.2550 </r>
       <r>    -0.9370     3.5487     2.4419 </r>
       <r>    -0.8843     5.0869     2.7099 </r>
       <r>    -0.8316     6.1235     3.0325 </r>
       <r>    -0.7789     5.9979     3.3485 </r>
       <r>    -0.7262     4.7982     3.6013 </r>
       <r>    -0.6735     3.2526     3.7726 </r>
       <r>    -0.6209     1.9639     3.8761 </r>
       <r>    -0.5682     1.1037     3.9343 </r>
       <r>    -0.5155     0.5953     3.9656 </r>
       <r>    -0.4628     0.3140     3.9822 </r>
       <r>    -0.4101     0.1636     3.9908 </r>
       <r>    -0.3574     0.0848     3.9952 </r>
       <r>    -0.3048     0.0438     3.9976 </r>
       <r>    -0.2521     0.0226     3.9987 </r>
       <r>    -0.1994     0.0034     3.9998 </r>
       <r>    -0.1467     0.0000     4.0000 </r>
       <r>    -0.0940     0.0000     4.0000 </r>
       <r>    -0.0414     0.0000     4.0000 </r>
       <r>     0.0113     0.0000     4.0000 </r>
       <r>     0.0640     0.0000     4.0000 </r>
       <r>     0.1167     0.0000     4.0000 </r>
       <r>     0.1694     0.0000     4.0000 </r>
       <r>     0.2221     0.0000     4.0000 </r>
       <r>     0.2747     0.0000     4.0000 </r>
       <r>     0.3274     0.0000     4.0000 </r>
       <r>     0.3801     0.0000     4.0000 </r>
       <r>     0.4328     0.0000     4.0000 </r>
       <r>     0.4855     0.0000     4.0000 </r>
       <r>     0.5381     0.0000     4.0000 </r>
       <r>     0.5908     0.0000     4.0000 </r>
       <r>     0.6435     0.0000     4.0000 </r>
       <r>     0.6962     0.0000     4.0000 </r>
       <r>     0.7489     0.0000     4.0000 </r>
       <r>     0.8016     0.0000     4.0000 </r>
       <r>     0.8542     0.0000     4.0000 </r>
       <r>     0.9069     0.0000     4.0000 </r>
       <r>     0.9596     0.0000     4.0000 </r>
       <r>     1.0123     0.0000     4.0000 </r>
       <r>     1.0650     0.0000     4.0000 </r>
       <r>     1.1177     0.0026     4.0001 </r>
       <r>     1.1703     0.0071     4.0005 </r>
       <r>     1.2230     0.0113     4.0011 </r>
       <r>     1.2757     0.0198     4.0021 </r>
       <r>     1.3284     0.0383     4.0042 </r>
       <r>     1.3811     0.0742     4.0081 </r>
       <r>     1.4337     0.1431     4.0156 </r>
       <r>     1.4864     0.2743     4.0301 </r>
       <r>     1.5391     0.5187     4.0574 </r>
       <r>     1.5918     0.9575     4.1078 </r>
       <r>     1.6445     1.6939     4.1971 </r>
       <r>     1.6972     2.7922     4.3442 </r>
       <r>     1.7498     4.1411     4.5623 </r>
       <r>     1.8025     5.3386     4.8436 </r>
       <r>     1.8552     5.8367     5.1511 </r>
       <r>     1.9079     5.3608     5.4335 </r>
       <r>     1.9606     4.1693     5.6531 </r>
       <r>     2.0133     2.8141     5.8014 </r>
       <r>     2.0659     1.7074     5.8913 </r>
       <r>     2.1186     0.9650     5.9422 </r>
       <r>     2.1713     0.5226     5.9697 </r>
       <r>     2.2240     0.2780     5.9844 </r>
       <r>     2.2767     0.1500     5.9923 </r>
       <r>     2.3293     0.0840     5.9967 </r>
       <r>     2.3820     0.0544     5.9996 </r>
       <r>     2.4347     0.0566     6.0027 </r>
       <r>     2.4874     0.0717     6.0070 </r>
       <r>     2.5401     0.1295     6.0141 </r>
       <r>     2.5928     0.2494     6.0272 </r>
       <r>     2.6454     0.4765     6.0523 </r>
       <r>     2.6981     0.8963     6.0996 </r>
       <r>     2.7508     1.6387     6.1859 </r>
       <r>     2.8035     2.8513     6.3361 </r>
       <r>     2.8562     4.5857     6.5777 </r>
       <r>     2.9088     6.6087     6.9259 </r>
       <r>     2.9615     8.3937     7.3680 </r>
       <r>     3.0142     9.4990     7.8685 </r>
       <r>     3.0669     9.8136     8.3855 </r>
       <r>     3.1196     9.2490     8.8727 </r>
       <r>     3.1723     7.7145     9.2792 </r>
       <r>     3.2249     5.5894     9.5736 </r>
       <r>     3.2776     3.5726     9.7618 </r>
       <r>     3.3303     2.0861     9.8717 </r>
       <r>     3.3830     1.1510     9.9324 </r>
       <r>     3.4357     0.6147     9.9647 </r>
       <r>     3.4884     0.3225     9.9817 </r>
       <r>     3.5410     0.1676     9.9906 </r>
       <r>     3.5937     0.0802     9.9955 </r>
       <r>     3.6464     0.0390     9.9978 </r>
       <r>     3.6991     0.0201     9.9989 </r>
       <r>     3.7518     0.0000    10.0000 </r>
       <r>     3.8044     0.0000    10.0000 </r>
       <r>     3.8571     0.0000    10.0000 </r>
       <r>     3.9098     0.0000    10.0000 </r>
       <r>     3.9625     0.0000    10.0000 </r>
       <r>     4.0152     0.0028    10.0001 </r>
       <r>     4.0679     0.0062    10.0005 </r>
       <r>     4.1205     0.0085    10.0009 </r>
       <r>     4.1732     0.0196    10.0020 </r>
       <r>     4.2259     0.0349    10.0038 </r>
       <r>     4.2786     0.0676    10.0074 </r>
       <r>     4.3313     0.1304    10.0142 </r>
       <r>     4.3840     0.2495    10.0274 </r>
       <r>     4.4366     0.4728    10.0523 </r>
       <r>     4.4893     0.8761    10.0984 </r>
       <r>     4.5420     1.5368    10.1794 </r>
       <r>     4.5947     2.5258    10.3125 </r>
       <r>     4.6474     3.7629    10.5107 </r>
       <r>     4.7000     4.9669    10.7724 </r>
       <r>     4.7527     5.7272    11.0741 </r>
       <r>     4.8054     5.7362    11.3763 </r>
       <r>     4.8581     5.0763    11.6437 </r>
       <r>     4.9108     4.2551    11.8679 </r>
       <r>     4.9635     3.8636    12.0714 </r>
       <r>     5.0161     4.2202    12.2938 </r>
       <r>     5.0688     5.2020    12.5678 </r>
       <r>     5.1215     6.1860    12.8937 </r>
       <r>     5.1742     6.3453    13.2280 </r>
       <r>     5.2269     5.3941    13.5122 </r>
       <r>     5.2795     3.8550    13.7152 </r>
       <r>     5.3322     2.4184    13.8429 </r>
       <r>     5.3849     1.3918    13.9165 </r>
       <r>     5.4376     0.7686    13.9571 </r>
       <r>     5.4903     0.4217    13.9795 </r>
       <r>     5.5430     0.2517    13.9928 </r>
       <r>     5.5956     0.1909    14.0029 </r>
       <r>     5.6483     0.2149    14.0142 </r>
       <r>     5.7010     0.3332    14.0317 </r>
       <r>     5.7537     0.5874    14.0630 </r>
       <r>     5.8064     1.0618    14.1196 </r>
       <r>     5.8591     1.8758    14.2184 </r>
       <r>     5.9117     3.0780    14.3806 </r>
       <r>     5.9644     4.5094    14.6181 </r>
       <r>     6.0171     5.6683    14.9168 </r>
       <r>     6.0698     5.9514    15.2303 </r>
       <r>     6.1225     5.1908    15.5038 </r>
       <r>     6.1751     3.8238    15.7052 </r>
       <r>     6.2278     2.4621    15.8349 </r>
       <r>     6.2805     1.4434    15.9110 </r>
       <r>     6.3332     0.7982    15.9530 </r>
       <r>     6.3859     0.4269    15.9755 </r>
       <r>     6.4386     0.2241    15.9873 </r>
       <r>     6.4912     0.1165    15.9934 </r>
       <r>     6.5439     0.0603    15.9966 </r>
       <r>     6.5966     0.0311    15.9983 </r>
       <r>     6.6493     0.0139    15.9995 </r>
       <r>     6.7020     0.0059    16.0001 </r>
       <r>     6.7547     0.0070    16.0007 </r>
       <r>     6.8073     0.0117    16.0013 </r>
       <r>     6.8600     0.0247    16.0026 </r>
       <r>     6.9127     0.0476    16.0051 </r>
       <r>     6.9654     0.0897    16.0098 </r>
       <r>     7.0181     0.1713    16.0188 </r>
       <r>     7.0707     0.3216    16.0358 </r>
       <r>     7.1234     0.5938    16.0671 </r>
       <r>     7.1761     1.0219    16.1209 </r>
       <r>     7.2288     1.6375    16.2072 </r>
       <r>     7.2815     2.3575    16.3314 </r>
       <r>     7.3342     3.0540    16.4922 </r>
       <r>     7.3868     3.6685    16.6855 </r>
       <r>     7.4395     4.2320    16.9085 </r>
       <r>     7.4922     4.7375    17.1580 </r>
       <r>     7.5449     5.1214    17.4279 </r>
       <r>     7.5976     5.3472    17.7096 </r>
       <r>     7.6502     5.5278    18.0008 </r>
       <r>     7.7029     5.8761    18.3103 </r>
       <r>     7.7556     6.3486    18.6448 </r>
       <r>     7.8083     6.5069    18.9876 </r>
       <r>     7.8610     5.9694    19.3021 </r>
       <r>     7.9137     4.8172    19.5559 </r>
       <r>     7.9663     3.4336    19.7370 </r>
       <r>     8.0190     2.2022    19.8530 </r>
       <r>     8.0717     1.3002    19.9218 </r>
       <r>     8.1244     0.7418    19.9608 </r>
       <r>     8.1771     0.4345    19.9840 </r>
       <r>     8.2298     0.3021    20.0002 </r>
       <r>     8.2824     0.3043    20.0162 </r>
       <r>     8.3351     0.4370    20.0393 </r>
       <r>     8.3878     0.7454    20.0785 </r>
       <r>     8.4405     1.3070    20.1481 </r>
       <r>     8.4932     2.2268    20.2654 </r>
       <r>     8.5458     3.4816    20.4491 </r>
       <r>     8.5985     4.8207    20.7030 </r>
       <r>     8.6512     5.7300    21.0049 </r>
       <r>     8.7039     5.7391    21.3072 </r>
       <r>     8.7566     4.8206    21.5612 </r>
       <r>     8.8093     3.4477    21.7428 </r>
       <r>     8.8619     2.1725    21.8573 </r>
       <r>     8.9146     1.2558    21.9234 </r>
       <r>     8.9673     0.6886    21.9597 </r>
       <r>     9.0200     0.3665    21.9790 </r>
       <r>     9.0727     0.1920    21.9891 </r>
       <r>     9.1254     0.0997    21.9944 </r>
       <r>     9.1780     0.0515    21.9971 </r>
       <r>     9.2307     0.0239    21.9987 </r>
       <r>     9.2834     0.0098    21.9995 </r>
       <r>     9.3361     0.0000    22.0000 </r>
       <r>     9.3888     0.0000    22.0000 </r>
       <r>     9.4414     0.0000    22.0000 </r>
       <r>     9.4941     0.0000    22.0000 </r>
       <r>     9.5468     0.0000    22.0000 </r>
       <r>     9.5995     0.0021    22.0001 </r>
       <r>     9.6522     0.0038    22.0003 </r>
       <r>     9.7049     0.0055    22.0006 </r>
       <r>     9.7575     0.0129    22.0013 </r>
       <r>     9.8102     0.0229    22.0025 </r>
       <r>     9.8629     0.0444    22.0048 </r>
       <r>     9.9156     0.0858    22.0093 </r>
       <r>     9.9683     0.1646    22.0180 </r>
       <r>    10.0209     0.3122    22.0345 </r>
       <r>    10.0736     0.5794    22.0650 </r>
       <r>    10.1263     1.0344    22.1195 </r>
       <r>    10.1790     1.7298    22.2106 </r>
       <r>    10.2317     2.6193    22.3486 </r>
       <r>    10.2844     3.4807    22.5320 </r>
       <r>    10.3370     3.9981    22.7426 </r>
       <r>    10.3897     3.9846    22.9525 </r>
       <r>    10.4424     3.4773    23.1357 </r>
       <r>    10.4951     2.6649    23.2761 </r>
       <r>    10.5478     1.8044    23.3712 </r>
       <r>    10.6005     1.1025    23.4292 </r>
       <r>    10.6531     0.6267    23.4623 </r>
       <r>    10.7058     0.3406    23.4802 </r>
       <r>    10.7585     0.1822    23.4898 </r>
       <r>    10.8112     0.0959    23.4949 </r>
       <r>    10.8639     0.0521    23.4976 </r>
       <r>    10.9165     0.0289    23.4994 </r>
       <r>    10.9692     0.0209    23.5008 </r>
       <r>    11.0219     0.0278    23.5023 </r>
       <r>    11.0746     0.0447    23.5049 </r>
       <r>    11.1273     0.0857    23.5094 </r>
       <r>    11.1800     0.1622    23.5179 </r>
       <r>    11.2326     0.2997    23.5337 </r>
       <r>    11.2853     0.5297    23.5616 </r>
       <r>    11.3380     0.8671    23.6073 </r>
       <r>    11.3907     1.2554    23.6735 </r>
       <r>    11.4434     1.5286    23.7540 </r>
       <r>    11.4961     1.5131    23.8337 </r>
       <r>    11.5487     1.2198    23.8980 </r>
       <r>    11.6014     0.8308    23.9417 </r>
       <r>    11.6541     0.5029    23.9682 </r>
       <r>    11.7068     0.2830    23.9831 </r>
       <r>    11.7595     0.1527    23.9912 </r>
       <r>    11.8121     0.0806    23.9954 </r>
       <r>    11.8648     0.0420    23.9976 </r>
       <r>    11.9175     0.0218    23.9988 </r>
       <r>    11.9702     0.0112    23.9994 </r>
       <r>    12.0229     0.0058    23.9997 </r>
       <r>    12.0756     0.0000    24.0000 </r>
       <r>    12.1282     0.0000    24.0000 </r>
       <r>    12.1809     0.0000    24.0000 </r>
       <r>    12.2336     0.0000    24.0000 </r>
      </set>
     </set>
    </array>
   </total>
  </dos>
  <time name="totalsc">    0.04    0.04</time>
 </calculation>
 <calculation>
  <scstep>
   <time name="diag">    0.00    0.00</time>
   <time name="diis">    0.00    0.00</time>
   <time name="orth">    0.00    0.00</time>
   <time name="total">    0.01    0.01</time>
   <energy>
    <i name="alphaZ">     -0.60288196 </i>
    <i name="ewald">   -255.04232298 </i>
    <i name="hartreedc">    -10.24613411 </i>
    <i name="XCdc">   -106.46989238 </i>
    <i name="pawpsdc">    559.66287097 </i>
    <i name="pawaedc">   -431.88148898 </i>
    <i name="eentropy">     -0.09202495 </i>
    <i name="bandstr">     18.20046120 </i>
    <i name="atom">    214.14321246 </i>
    <i name="e_fr_energy">    -12.32820074 </i>
    <i name="e_wo_entrp">    -12.23617579 </i>
    <i name="e_0_energy">    -12.28218827 </i>
   </energy>
  </scstep>
  <scstep>
   <time name="diag">    0.00    0.00</time>
   <time name="diis">    0.00    0.00</time>
   <time name="orth">    0.00    0.00</time>
   <time name="total">    0.01    0.01</time>
   <energy>
    <i name="alphaZ">     -0.60288196 </i>
    <i name="ewald">   -255.04232298 </i>
    <i name="hartreedc">    -10.24095974 </i>
    <i name="XCdc">   -106.47053657 </i>
    <i name="pawpsdc">    559.76571847 </i>
    <i name="pawaedc">   -431.98393508 </i>
    <i name="eentropy">     -0.09198658 </i>
    <i name="bandstr">     18.19549628 </i>
    <i name="atom">    214.14321246 </i>
    <i name="e_fr_energy">    -12.32819569 </i>
    <i name="e_wo_entrp">    -12.23620911 </i>
    <i name="e_0_energy">    -12.28220240 </i>
   </energy>
  </scstep>
  <structure>
   <crystal>
    <varray name="basis" >
     <v>       7.09105799       0.00000000       0.00000000 </v>
     <v>       0.00000000       3.54552899       0.00000000 </v>
     <v>       0.00000000       0.00000000       3.54552899 </v>
    </varray>
    <i name="volume">     89.14010044 </i>
    <varray name="rec_basis" >
     <v>       0.14102268       0.00000000       0.00000000 </v>
     <v>       0.00000000       0.28204536       0.00000000 </v>
     <v>       0.00000000       0.00000000       0.28204536 </v>
    </varray>
   </crystal>
   <varray name="positions" >
    <v>       0.03067809       0.97648445       0.89348994 </v>
    <v>       0.46214338       0.01187813       0.98597491 </v>
    <v>       0.30354715       0.49244996       0.49962975 </v>
    <v>       0.70363138       0.51918746       0.62090540 </v>
   </varray>
  </structure>
  <varray name="forces" >
   <v>       0.49717266       0.08760825      -0.03796186 </v>
   <v>      -0.29346891      -0.12060205       0.34062173 </v>
   <v>       0.22642727       0.14382620      -0.13040534 </v>
   <v>      -0.43235661      -0.11029976      -0.17249270 </v>
  </varray>
  <varray name="stress" >
   <v>    -241.99518504      -3.21412225       7.28571407 </v>
   <v>      -3.21412225     173.71848848      -3.16234211 </v>
   <v>       7.28571407      -3.16234211      21.18449017 </v>
  </varray>
  <energy>
   <i name="e_fr_energy">    -12.32819569 </i>
   <i name="e_wo_entrp">    -12.23620911 </i>
   <i name="e_0_energy">    -12.28220240 </i>
   <i name="kinetic">      0.61364392 </i>
   <i name="lattice kinetic">      0.00000000 </i>
   <i name="nosepot">      0.01080726 </i>
   <i name="nosekinetic">      0.00197820 </i>
   <i name="total">    -11.70176632 </i>
  </energy>
  <time name="totalsc">    0.04    0.04</time>
 </calculation>
 <calculation>
  <scstep>
   <time name="diag">    0.00    0.00</time>
   <time name="diis">    0.01    0.01</time>
   <time name="orth">    0.00    0.00</time>
   <time name="total">    0.01    0.01</time>
   <energy>
    <i name="alphaZ">     -0.60288196 </i>
    <i name="ewald">   -255.62861338 </i>
    <i name="hartreedc">     -9.71641744 </i>
    <i name="XCdc">   -106.48789924 </i>
    <i name="pawpsdc">    539.26825975 </i>
    <i name="pawaedc">   -411.48346132 </i>
    <i name="eentropy">     -0.09467110 </i>
    <i name="bandstr">     18.27712294 </i>
    <i name="atom">    214.14321246 </i>
    <i name="e_fr_energy">    -12.32534929 </i>
    <i name="e_wo_entrp">    -12.23067818 </i>
    <i name="e_0_energy">    -12.27801373 </i>
   </energy>
  </scstep>
  <scstep>
   <time name="diag">    0.00    0.00</time>
   <time name="diis">    0.00    0.00</time>
   <time name="orth">    0.00    0.00</time>
   <time name="total">    0.01    0.01</time>
   <energy>
    <i name="alphaZ">     -0.60288196 </i>
    <i name="ewald">   -255.62861338 </i>
    <i name="hartreedc">     -9.72809389 </i>
    <i name="XCdc">   -106.48666927 </i>
    <i name="pawpsdc">    541.01422414 </i>
    <i name="pawaedc">   -413.22911286 </i>
    <i name="eentropy">     -0.09473190 </i>
    <i name="bandstr">     18.28735975 </i>
    <i name="atom">    214.14321246 </i>
    <i name="e_fr_energy">    -12.32530693 </i>
    <i name="e_wo_entrp">    -12.23057502 </i>
    <i name="e_0_energy">    -12.27794097 </i>
   </energy>
  </scstep>
  <structure>
   <crystal>
    <varray name="basis" >
     <v>       7.09105799       0.00000000       0.00000000 </v>
     <v>       0.00000000       3.54552899       0.00000000 </v>
     <v>       0.00000000       0.00000000       3.54552899 </v>
    </varray>
    <i name="volume">     89.14010044 </i>
    <varray name="rec_basis" >
     <v>       0.14102268       0.00000000       0.00000000 </v>
     <v>       0.00000000       0.28204536       0.00000000 </v>
     <v>       0.00000000       0.00000000       0.28204536 </v>
    </varray>
   </crystal>
   <varray name="positions" >
    <v>       0.03279956       0.97689605       0.89123480 </v>
    <v>       0.46174993       0.01190008       0.98867879 </v>
    <v>       0.29922952       0.49403253       0.49935015 </v>
    <v>       0.70622099       0.51717135       0.62073626 </v>
   </varray>
  </structure>
  <varray name="forces" >
   <v>       0.51503106       0.09257579      -0.01119544 </v>
   <v>      -0.33357049      -0.10412852       0.26673616 </v>
   <v>       0.28760688       0.10754274      -0.11004063 </v>
   <v>      -0.47369193      -0.09516077      -0.14676759 </v>
  </varray>
  <varray name="stress" >
   <v>    -247.69675199      -2.59023346       6.99079653 </v>
   <v>      -2.59023346     172.97377399      -3.18876691 </v>
   <v>       6.99079653      -3.18876691      18.88263190 </v>
  </varray>
  <energy>
   <i name="e_fr_energy">    -12.32530693 </i>
   <i name="e_wo_entrp">    -12.23057502 </i>
   <i name="e_0_energy">    -12.27794097 </i>
   <i name="kinetic">      0.60846859 </i>
   <i name="lattice kinetic">      0.00000000 </i>
   <i name="nosepot">      0.01219106 </i>
   <i name="nosekinetic">      0.00296383 </i>
   <i name="total">    -11.70168344 </i>
  </energy>
  <time name="totalsc">    0.04    0.04</time>
 </calculation>
 <calculation>
  <scstep>
   <time name="diag">    0.00    0.00</time>
   <time name="diis">    0.01    0.01</time>
   <time name="orth">    0.00    0.00</time>
   <time name="total">    0.01    0.01</time>
   <energy>
    <i name="alphaZ">     -0.60288196 </i>
    <i name="ewald">   -256.10565942 </i>
    <i name="hartreedc">     -9.32256653 </i>
    <i name="XCdc">   -106.49756340 </i>
    <i name="pawpsdc">    519.37673395 </i>
    <i name="pawaedc">   -391.58868806 </i>
    <i name="eentropy">     -0.09779026 </i>
    <i name="bandstr">     18.37470028 </i>
    <i name="atom">    214.14321246 </i>
    <i name="e_fr_energy">    -12.32050293 </i>
    <i name="e_wo_entrp">    -12.22271267 </i>
    <i name="e_0_energy">    -12.27160780 </i>
   </energy>
  </scstep>
  <scstep>
   <time name="diag">    0.00    0.00</time>
   <time name="diis">    0.00    0.00</time>
   <time name="orth">    0.00    0.00</time>
   <time name="total">    0.01    0.01</time>
   <energy>
    <i name="alphaZ">     -0.60288196 </i>
    <i name="ewald">   -256.10565942 </i>
    <i name="hartreedc">     -9.31429825 </i>
    <i name="XCdc">   -106.49865346 </i>
    <i name="pawpsdc">    522.16830954 </i>
    <i name="pawaedc">   -394.38014747 </i>
    <i name="eentropy">     -0.09764186 </i>
    <i name="bandstr">     18.36726842 </i>
    <i name="atom">    214.14321246 </i>
    <i name="e_fr_energy">    -12.32049200 </i>
    <i name="e_wo_entrp">    -12.22285014 </i>
    <i name="e_0_energy">    -12.27167107 </i>
   </energy>
  </scstep>
  <structure>
   <crystal>
    <varray name="basis" >
     <v>       7.09105799       0.00000000       0.00000000 </v>
     <v>       0.00000000       3.54552899       0.00000000 </v>
     <v>       0.00000000       0.00000000       3.54552899 </v>
    </varray>
    <i name="volume">     89.14010044 </i>
    <varray name="rec_basis" >
     <v>       0.14102268       0.00000000       0.00000000 </v>
     <v>       0.00000000       0.28204536       0.00000000 </v>
     <v>       0.00000000       0.00000000       0.28204536 </v>
    </varray>
   </crystal>
   <varray name="positions" >
    <v>       0.03502053       0.97734399       0.88898008 </v>
    <v>       0.46129034       0.01187994       0.99148454 </v>
    <v>       0.29497928       0.49565498       0.49902692 </v>
    <v>       0.70870986       0.51512109       0.62050846 </v>
   </varray>
  </structure>
  <varray name="forces" >
   <v>       0.52810327       0.09837126       0.02017928 </v>
   <v>      -0.37315350      -0.08868763       0.19881575 </v>
   <v>       0.33181648       0.07330606      -0.09930803 </v>
   <v>      -0.49258593      -0.08155132      -0.12154714 </v>
  </varray>
  <varray name="stress" >
   <v>    -252.33866869      -2.10420691       6.67327108 </v>
   <v>      -2.10420691     171.97958265      -3.20225152 </v>
   <v>       6.67327108      -3.20225152      17.14671021 </v>
  </varray>
  <energy>
   <i name="e_fr_energy">    -12.32049200 </i>
   <i name="e_wo_entrp">    -12.22285014 </i>
   <i name="e_0_energy">    -12.27167107 </i>
   <i name="kinetic">      0.60099991 </i>
   <i name="lattice kinetic">      0.00000000 </i>
   <i name="nosepot">      0.01385054 </i>
   <i name="nosekinetic">      0.00411617 </i>
   <i name="total">    -11.70152538 </i>
  </energy>
  <time name="totalsc">    0.04    0.04</time>
 </calculation>
 <calculation>
  <scstep>
   <time name="diag">    0.00    0.00</time>
   <time name="diis">    0.01    0.01</time>
   <time name="orth">    0.00    0.00</time>
   <time name="total">    0.01    0.01</time>
   <energy>
    <i name="alphaZ">     -0.60288196 </i>
    <i name="ewald">   -256.47362674 </i>
    <i name="hartreedc">     -8.97780405 </i>
    <i name="XCdc">   -106.50984948 </i>
    <i name="pawpsdc">    523.06088992 </i>
    <i name="pawaedc">   -395.26987214 </i>
    <i name="eentropy">     -0.10051405 </i>
    <i name="bandstr">     18.41610793 </i>
    <i name="atom">    214.14321246 </i>
    <i name="e_fr_energy">    -12.31433811 </i>
    <i name="e_wo_entrp">    -12.21382407 </i>
    <i name="e_0_energy">    -12.26408109 </i>
   </energy>
  </scstep>
  <scstep>
   <time name="diag">    0.00    0.00</time>
   <time name="diis">    0.00    0.00</time>
   <time name="orth">    0.00    0.00</time>
   <time name="total">    0.01    0.01</time>
   <energy>
    <i name="alphaZ">     -0.60288196 </i>
    <i name="ewald">   -256.47362674 </i>
    <i name="hartreedc">     -8.98250728 </i>
    <i name="XCdc">   -106.50987677 </i>
    <i name="pawpsdc">    523.52164904 </i>
    <i name="pawaedc">   -395.73052266 </i>
    <i name="eentropy">     -0.10059318 </i>
    <i name="bandstr">     18.42081660 </i>
    <i name="atom">    214.14321246 </i>
    <i name="e_fr_energy">    -12.31433050 </i>
    <i name="e_wo_entrp">    -12.21373732 </i>
    <i name="e_0_energy">    -12.26403391 </i>
   </energy>
  </scstep>
  <structure>
   <crystal>
    <varray name="basis" >
     <v>       7.09105799       0.00000000       0.00000000 </v>
     <v>       0.00000000       3.54552899       0.00000000 </v>
     <v>       0.00000000       0.00000000       3.54552899 </v>
    </varray>
    <i name="volume">     89.14010044 </i>
    <varray name="rec_basis" >
     <v>       0.14102268       0.00000000       0.00000000 </v>
     <v>       0.00000000       0.28204536       0.00000000 </v>
     <v>       0.00000000       0.00000000       0.28204536 </v>
    </varray>
   </crystal>
   <varray name="positions" >
    <v>       0.03734261       0.97783031       0.88673934 </v>
    <v>       0.46075701       0.01182397       0.99436354 </v>
    <v>       0.29080685       0.49730275       0.49866468 </v>
    <v>       0.71109353       0.51304298       0.62023244 </v>
   </varray>
  </structure>
  <varray name="forces" >
   <v>       0.53249404       0.10564935       0.05789926 </v>
   <v>      -0.40439889      -0.07392940       0.13450179 </v>
   <v>       0.37747818       0.04053561      -0.09710593 </v>
   <v>      -0.50590161      -0.07017586      -0.09702579 </v>
  </varray>
  <varray name="stress" >
   <v>    -255.33796520      -1.77984035       6.20570764 </v>
   <v>      -1.77984035     170.68689343      -3.07246196 </v>
   <v>       6.20570764      -3.07246196      15.69853627 </v>
  </varray>
  <energy>
   <i name="e_fr_energy">    -12.31433050 </i>
   <i name="e_wo_entrp">    -12.21373732 </i>
   <i name="e_0_energy">    -12.26403391 </i>
   <i name="kinetic">      0.59176986 </i>
   <i name="lattice kinetic">      0.00000000 </i>
   <i name="nosepot">      0.01577752 </i>
   <i name="nosekinetic">      0.00540906 </i>
   <i name="total">    -11.70137406 </i>
  </energy>
  <time name="totalsc">    0.04    0.04</time>
 </calculation>
 <calculation>
  <scstep>
   <time name="diag">    0.00    0.00</time>
   <time name="diis">    0.01    0.01</time>
   <time name="orth">    0.00    0.00</time>
   <time name="total">    0.01    0.01</time>
   <energy>
    <i name="alphaZ">     -0.60288196 </i>
    <i name="ewald">   -256.73358494 </i>
    <i name="hartreedc">     -8.74868347 </i>
    <i name="XCdc">   -106.51765606 </i>
    <i name="pawpsdc">    525.82284253 </i>
    <i name="pawaedc">   -398.02957304 </i>
    <i name="eentropy">     -0.10348460 </i>
    <i name="bandstr">     18.46250650 </i>
    <i name="atom">    214.14321246 </i>
    <i name="e_fr_energy">    -12.30730258 </i>
    <i name="e_wo_entrp">    -12.20381799 </i>
    <i name="e_0_energy">    -12.25556028 </i>
   </energy>
  </scstep>
  <scstep>
   <time name="diag">    0.00    0.00</time>
   <time name="diis">    0.00    0.00</time>
   <time name="orth">    0.00    0.00</time>
   <time name="total">    0.01    0.01</time>
   <energy>
    <i name="alphaZ">     -0.60288196 </i>
    <i name="ewald">   -256.73358494 </i>
    <i name="hartreedc">     -8.74704759 </i>
    <i name="XCdc">   -106.51742202 </i>
    <i name="pawpsdc">    522.35087561 </i>
    <i name="pawaedc">   -394.55764570 </i>
    <i name="eentropy">     -0.10346628 </i>
    <i name="bandstr">     18.46065457 </i>
    <i name="atom">    214.14321246 </i>
    <i name="e_fr_energy">    -12.30730586 </i>
    <i name="e_wo_entrp">    -12.20383958 </i>
    <i name="e_0_energy">    -12.25557272 </i>
   </energy>
  </scstep>
  <structure>
   <crystal>
    <varray name="basis" >
     <v>       7.09105799       0.00000000       0.00000000 </v>
     <v>       0.00000000       3.54552899       0.00000000 </v>
     <v>       0.00000000       0.00000000       3.54552899 </v>
    </varray>
    <i name="volume">     89.14010044 </i>
    <varray name="rec_basis" >
     <v>       0.14102268       0.00000000       0.00000000 </v>
     <v>       0.00000000       0.28204536       0.00000000 </v>
     <v>       0.00000000       0.00000000       0.28204536 </v>
    </varray>
   </crystal>
   <varray name="positions" >
    <v>       0.03976528       0.97835758       0.88452855 </v>
    <v>       0.46014378       0.01173816       0.99728861 </v>
    <v>       0.28672248       0.49896190       0.49826454 </v>
    <v>       0.71336846       0.51094237       0.61991830 </v>
   </varray>
  </structure>
  <varray name="forces" >
   <v>       0.53020297       0.11443414       0.10095932 </v>
   <v>      -0.43715130      -0.06031582       0.07583821 </v>
   <v>       0.40950013       0.00892041      -0.10386145 </v>
   <v>      -0.50268640      -0.06042328      -0.07423682 </v>
  </varray>
  <varray name="stress" >
   <v>    -257.32928839      -1.64657100       5.62300026 </v>
   <v>      -1.64657100     169.33394553      -2.88655106 </v>
   <v>       5.62300026      -2.88655106      14.84030261 </v>
  </varray>
  <energy>
   <i name="e_fr_energy">    -12.30730586 </i>
   <i name="e_wo_entrp">    -12.20383958 </i>
   <i name="e_0_energy">    -12.25557272 </i>
   <i name="kinetic">      0.58118160 </i>
   <i name="lattice kinetic">      0.00000000 </i>
   <i name="nosepot">      0.01796187 </i>
   <i name="nosekinetic">      0.00681398 </i>
   <i name="total">    -11.70134840 </i>
  </energy>
  <dos>
   <i name="efermi">      4.88667019 </i>
   <total>
    <array>
     <dimension dim="1">gridpoints</dimension>
     <dimension dim="2">spin</dimension>
     <field>energy</field>
     <field>total</field>
     <field>integrated</field>
     <set>
      <set comment="spin 1">
       <r>    -3.4768     0.0000     0.0000 </r>
       <r>    -3.4277     0.0000     0.0000 </r>
       <r>    -3.3785     0.0000     0.0000 </r>
       <r>    -3.3294     0.0117     0.0006 </r>
       <r>    -3.2802     0.0100     0.0011 </r>
       <r>    -3.2311     0.0186     0.0020 </r>
       <r>    -3.1819     0.0345     0.0037 </r>
       <r>    -3.1328     0.0640     0.0068 </r>
       <r>    -3.0836     0.1184     0.0126 </r>
       <r>    -3.0345     0.2182     0.0234 </r>
       <r>    -2.9853     0.3994     0.0430 </r>
       <r>    -2.9362     0.7217     0.0785 </r>
       <r>    -2.8870     1.2742     0.1411 </r>
       <r>    -2.8379     2.1605     0.2473 </r>
       <r>    -2.7887     3.4231     0.4155 </r>
       <r>    -2.7396     4.8812     0.6554 </r>
       <r>    -2.6904     6.0085     0.9507 </r>
       <r>    -2.6413     6.1890     1.2549 </r>
       <r>    -2.5921     5.3086     1.5158 </r>
       <r>    -2.5430     3.8842     1.7067 </r>
       <r>    -2.4938     2.5238     1.8308 </r>
       <r>    -2.4447     1.5156     1.9052 </r>
       <r>    -2.3955     0.8675     1.9479 </r>
       <r>    -2.3464     0.4830     1.9716 </r>
       <r>    -2.2972     0.2647     1.9846 </r>
       <r>    -2.2481     0.1439     1.9917 </r>
       <r>    -2.1989     0.0778     1.9955 </r>
       <r>    -2.1498     0.0420     1.9976 </r>
       <r>    -2.1007     0.0226     1.9987 </r>
       <r>    -2.0515     0.0122     1.9993 </r>
       <r>    -2.0024     0.0000     2.0000 </r>
       <r>    -1.9532     0.0000     2.0000 </r>
       <r>    -1.9041     0.0000     2.0000 </r>
       <r>    -1.8549     0.0000     2.0000 </r>
       <r>    -1.8058     0.0000     2.0000 </r>
       <r>    -1.7566     0.0000     2.0000 </r>
       <r>    -1.7075     0.0000     2.0000 </r>
       <r>    -1.6583     0.0000     2.0000 </r>
       <r>    -1.6092     0.0000     2.0000 </r>
       <r>    -1.5600     0.0082     2.0004 </r>
       <r>    -1.5109     0.0071     2.0008 </r>
       <r>    -1.4617     0.0131     2.0014 </r>
       <r>    -1.4126     0.0244     2.0026 </r>
       <r>    -1.3634     0.0452     2.0048 </r>
       <r>    -1.3143     0.0838     2.0089 </r>
       <r>    -1.2651     0.1548     2.0165 </r>
       <r>    -1.2160     0.2846     2.0305 </r>
       <r>    -1.1668     0.5184     2.0560 </r>
       <r>    -1.1177     0.9287     2.1017 </r>
       <r>    -1.0685     1.6148     2.1810 </r>
       <r>    -1.0194     2.6675     2.3121 </r>
       <r>    -0.9702     4.0548     2.5114 </r>
       <r>    -0.9211     5.4468     2.7791 </r>
       <r>    -0.8719     6.2191     3.0848 </r>
       <r>    -0.8228     5.9109     3.3753 </r>
       <r>    -0.7736     4.7155     3.6070 </r>
       <r>    -0.7245     3.2628     3.7674 </r>
       <r>    -0.6753     2.0413     3.8677 </r>
       <r>    -0.6262     1.1975     3.9266 </r>
       <r>    -0.5770     0.6761     3.9598 </r>
       <r>    -0.5279     0.3735     3.9782 </r>
       <r>    -0.4787     0.2039     3.9882 </r>
       <r>    -0.4296     0.1105     3.9936 </r>
       <r>    -0.3805     0.0597     3.9966 </r>
       <r>    -0.3313     0.0322     3.9982 </r>
       <r>    -0.2822     0.0173     3.9990 </r>
       <r>    -0.2330     0.0000     4.0000 </r>
       <r>    -0.1839     0.0000     4.0000 </r>
       <r>    -0.1347     0.0000     4.0000 </r>
       <r>    -0.0856     0.0000     4.0000 </r>
       <r>    -0.0364     0.0000     4.0000 </r>
       <r>     0.0127     0.0000     4.0000 </r>
       <r>     0.0619     0.0000     4.0000 </r>
       <r>     0.1110     0.0000     4.0000 </r>
       <r>     0.1602     0.0000     4.0000 </r>
       <r>     0.2093     0.0000     4.0000 </r>
       <r>     0.2585     0.0000     4.0000 </r>
       <r>     0.3076     0.0000     4.0000 </r>
       <r>     0.3568     0.0000     4.0000 </r>
       <r>     0.4059     0.0000     4.0000 </r>
       <r>     0.4551     0.0000     4.0000 </r>
       <r>     0.5042     0.0000     4.0000 </r>
       <r>     0.5534     0.0000     4.0000 </r>
       <r>     0.6025     0.0000     4.0000 </r>
       <r>     0.6517     0.0000     4.0000 </r>
       <r>     0.7008     0.0000     4.0000 </r>
       <r>     0.7500     0.0000     4.0000 </r>
       <r>     0.7991     0.0000     4.0000 </r>
       <r>     0.8483     0.0000     4.0000 </r>
       <r>     0.8974     0.0000     4.0000 </r>
       <r>     0.9466     0.0000     4.0000 </r>
       <r>     0.9957     0.0000     4.0000 </r>
       <r>     1.0449     0.0000     4.0000 </r>
       <r>     1.0940     0.0000     4.0000 </r>
       <r>     1.1432     0.0027     4.0001 </r>
       <r>     1.1923     0.0108     4.0007 </r>
       <r>     1.2415     0.0116     4.0012 </r>
       <r>     1.2906     0.0215     4.0023 </r>
       <r>     1.3397     0.0399     4.0042 </r>
       <r>     1.3889     0.0739     4.0079 </r>
       <r>     1.4380     0.1365     4.0146 </r>
       <r>     1.4872     0.2512     4.0269 </r>
       <r>     1.5363     0.4579     4.0494 </r>
       <r>     1.5855     0.8215     4.0898 </r>
       <r>     1.6346     1.4327     4.1602 </r>
       <r>     1.6838     2.3814     4.2773 </r>
       <r>     1.7329     3.6652     4.4574 </r>
       <r>     1.7821     5.0397     4.7051 </r>
       <r>     1.8312     5.9786     4.9989 </r>
       <r>     1.8804     5.9841     5.2931 </r>
       <r>     1.9295     5.0516     5.5413 </r>
       <r>     1.9787     3.6759     5.7220 </r>
       <r>     2.0278     2.3883     5.8394 </r>
       <r>     2.0770     1.4365     5.9100 </r>
       <r>     2.1261     0.8235     5.9505 </r>
       <r>     2.1753     0.4589     5.9730 </r>
       <r>     2.2244     0.2517     5.9854 </r>
       <r>     2.2736     0.1368     5.9921 </r>
       <r>     2.3227     0.0780     5.9959 </r>
       <r>     2.3719     0.0481     5.9983 </r>
       <r>     2.4210     0.0319     5.9999 </r>
       <r>     2.4702     0.0235     6.0018 </r>
       <r>     2.5193     0.0401     6.0040 </r>
       <r>     2.5685     0.0755     6.0077 </r>
       <r>     2.6176     0.1344     6.0143 </r>
[...]
       <r>    11.2759     0.0019    23.5002 </r>
       <r>    11.3323     0.0039    23.5004 </r>
       <r>    11.3886     0.0080    23.5009 </r>
       <r>    11.4449     0.0162    23.5018 </r>
       <r>    11.5012     0.0327    23.5036 </r>
       <r>    11.5575     0.0658    23.5073 </r>
       <r>    11.6138     0.1309    23.5147 </r>
       <r>    11.6701     0.2546    23.5290 </r>
       <r>    11.7264     0.4742    23.5558 </r>
       <r>    11.7827     0.8160    23.6017 </r>
       <r>    11.8391     1.2298    23.6710 </r>
       <r>    11.8954     1.5269    23.7569 </r>
       <r>    11.9517     1.4983    23.8413 </r>
       <r>    12.0080     1.1665    23.9070 </r>
       <r>    12.0643     0.7551    23.9495 </r>
       <r>    12.1206     0.4321    23.9738 </r>
       <r>    12.1769     0.2300    23.9868 </r>
       <r>    12.2332     0.1177    23.9934 </r>
       <r>    12.2895     0.0590    23.9967 </r>
       <r>    12.3459     0.0293    23.9984 </r>
       <r>    12.4022     0.0145    23.9992 </r>
       <r>    12.4585     0.0071    23.9996 </r>
       <r>    12.5148     0.0035    23.9998 </r>
       <r>    12.5711     0.0000    24.0000 </r>
       <r>    12.6274     0.0000    24.0000 </r>
       <r>    12.6837     0.0000    24.0000 </r>
      </set>
     </set>
    </array>
   </total>
  </dos>
  <time name="totalsc">    0.05    0.05</time>
  <eigenvalues>
   <array>
    <dimension dim="1">band</dimension>
    <dimension dim="2">kpoint</dimension>
    <dimension dim="3">spin</dimension>
    <field>eigene</field>
    <field>occ</field>
    <set>
     <set comment="spin 1">
      <set comment="kpoint 1">
       <r>   -3.4207    1.0000 </r>
       <r>   -0.9098    1.0000 </r>
       <r>    2.0647    1.0000 </r>
       <r>    2.3235    1.0000 </r>
       <r>    2.6345    1.0000 </r>
       <r>    4.6750    0.8367 </r>
       <r>    4.9073    0.2149 </r>
       <r>    6.0266    0.0000 </r>
       <r>    7.8536    0.0000 </r>
       <r>    8.1717    0.0000 </r>
       <r>    8.3724    0.0000 </r>
       <r>   12.0123    0.0000 </r>
      </set>
      <set comment="kpoint 2">
       <r>   -3.4211    1.0000 </r>
       <r>   -0.9057    1.0000 </r>
       <r>    1.9931    1.0000 </r>
       <r>    2.3959    1.0000 </r>
       <r>    2.6282    1.0000 </r>
       <r>    4.6522    0.8724 </r>
       <r>    4.9591    0.1246 </r>
       <r>    6.0587    0.0000 </r>
       <r>    7.7784    0.0000 </r>
       <r>    8.1618    0.0000 </r>
       <r>    8.3324    0.0000 </r>
       <r>   10.2935    0.0000 </r>
      </set>
      <set comment="kpoint 3">
       <r>   -3.4210    1.0000 </r>
       <r>   -0.9061    1.0000 </r>
       <r>    1.9960    1.0000 </r>
       <r>    2.3854    1.0000 </r>
       <r>    2.6400    1.0000 </r>
       <r>    4.6823    0.8239 </r>
       <r>    4.9355    0.1610 </r>
       <r>    5.9600    0.0000 </r>
       <r>    7.8570    0.0000 </r>
       <r>    8.1799    0.0000 </r>
       <r>    8.4278    0.0000 </r>
       <r>   10.5438    0.0000 </r>
      </set>
      <set comment="kpoint 4">
       <r>   -3.4203    1.0000 </r>
       <r>   -0.9125    1.0000 </r>
       <r>    2.0511    1.0000 </r>
       <r>    2.3647    1.0000 </r>
       <r>    2.6188    1.0000 </r>
       <r>    4.6883    0.8127 </r>
       <r>    4.9398    0.1537 </r>
       <r>    5.8850    0.0000 </r>
       <r>    7.9593    0.0000 </r>
       <r>    8.2036    0.0000 </r>
       <r>    8.4256    0.0000 </r>
       <r>   10.2380    0.0000 </r>
      </set>
     </set>
    </set>
   </array>
  </eigenvalues>
  <separator name="orbital magnetization" >
   <v name="MAGDIPOLOUT">      0.00000000      0.00000000      0.00000000</v>
  </separator>
  <dos>
   <i name="efermi">      4.80458828 </i>
   <total>
    <array>
     <dimension dim="1">gridpoints</dimension>
     <dimension dim="2">spin</dimension>
     <field>energy</field>
     <field>total</field>
     <field>integrated</field>
     <set>
      <set comment="spin 1">
       <r>    -4.2139     0.0000     0.0000 </r>
       <r>    -4.1572     0.0000     0.0000 </r>
       <r>    -4.1004     0.0067     0.0004 </r>
       <r>    -4.0437     0.0070     0.0008 </r>
       <r>    -3.9870     0.0142     0.0016 </r>
       <r>    -3.9302     0.0291     0.0032 </r>
       <r>    -3.8735     0.0594     0.0066 </r>
       <r>    -3.8168     0.1208     0.0135 </r>
       <r>    -3.7601     0.2445     0.0273 </r>
       <r>    -3.7033     0.4897     0.0551 </r>
       <r>    -3.6466     0.9599     0.1096 </r>
       <r>    -3.5899     1.8050     0.2120 </r>
       <r>    -3.5331     3.1437     0.3903 </r>
       <r>    -3.4764     4.8079     0.6631 </r>
       <r>    -3.4197     6.0656     1.0072 </r>
       <r>    -3.3629     6.0359     1.3496 </r>
       <r>    -3.3062     4.7425     1.6186 </r>
       <r>    -3.2495     3.0811     1.7934 </r>
       <r>    -3.1928     1.7621     1.8934 </r>
       <r>    -3.1360     0.9350     1.9464 </r>
       <r>    -3.0793     0.4764     1.9734 </r>
       <r>    -3.0226     0.2378     1.9869 </r>
       <r>    -2.9658     0.1174     1.9936 </r>
       <r>    -2.9091     0.0577     1.9969 </r>
       <r>    -2.8524     0.0283     1.9985 </r>
       <r>    -2.7956     0.0138     1.9992 </r>
       <r>    -2.7389     0.0000     2.0000 </r>
       <r>    -2.6822     0.0000     2.0000 </r>
       <r>    -2.6255     0.0000     2.0000 </r>
       <r>    -2.5687     0.0000     2.0000 </r>
       <r>    -2.5120     0.0000     2.0000 </r>
       <r>    -2.4553     0.0000     2.0000 </r>
       <r>    -2.3985     0.0000     2.0000 </r>
       <r>    -2.3418     0.0000     2.0000 </r>
       <r>    -2.2851     0.0000     2.0000 </r>
       <r>    -2.2283     0.0000     2.0000 </r>
       <r>    -2.1716     0.0000     2.0000 </r>
       <r>    -2.1149     0.0000     2.0000 </r>
       <r>    -2.0582     0.0000     2.0000 </r>
       <r>    -2.0014     0.0000     2.0000 </r>
       <r>    -1.9447     0.0000     2.0000 </r>
       <r>    -1.8880     0.0000     2.0000 </r>
       <r>    -1.8312     0.0000     2.0000 </r>
       <r>    -1.7745     0.0000     2.0000 </r>
       <r>    -1.7178     0.0000     2.0000 </r>
       <r>    -1.6610     0.0000     2.0000 </r>
       <r>    -1.6043     0.0000     2.0000 </r>
       <r>    -1.5476     0.0111     2.0006 </r>
       <r>    -1.4909     0.0116     2.0013 </r>
       <r>    -1.4341     0.0238     2.0026 </r>
       <r>    -1.3774     0.0485     2.0054 </r>
       <r>    -1.3207     0.0988     2.0110 </r>
       <r>    -1.2639     0.2003     2.0224 </r>
       <r>    -1.2072     0.4027     2.0452 </r>
       <r>    -1.1505     0.7954     2.0903 </r>
       <r>    -1.0937     1.5176     2.1764 </r>
       <r>    -1.0370     2.7136     2.3304 </r>
       <r>    -0.9803     4.3328     2.5762 </r>
       <r>    -0.9236     5.8075     2.9056 </r>
       <r>    -0.8668     6.1961     3.2571 </r>
       <r>    -0.8101     5.1915     3.5516 </r>
       <r>    -0.7534     3.5389     3.7524 </r>
       <r>    -0.6966     2.0864     3.8708 </r>
       <r>    -0.6399     1.1262     3.9347 </r>
       <r>    -0.5832     0.5791     3.9675 </r>
       <r>    -0.5264     0.2904     3.9840 </r>
       <r>    -0.4697     0.1437     3.9921 </r>
       <r>    -0.4130     0.0707     3.9961 </r>
       <r>    -0.3563     0.0347     3.9981 </r>
       <r>    -0.2995     0.0170     3.9991 </r>
       <r>    -0.2428     0.0000     4.0000 </r>
       <r>    -0.1861     0.0000     4.0000 </r>
       <r>    -0.1293     0.0000     4.0000 </r>
       <r>    -0.0726     0.0000     4.0000 </r>
       <r>    -0.0159     0.0000     4.0000 </r>
       <r>     0.0409     0.0000     4.0000 </r>
       <r>     0.0976     0.0000     4.0000 </r>
       <r>     0.1543     0.0000     4.0000 </r>
       <r>     0.2110     0.0000     4.0000 </r>
       <r>     0.2678     0.0000     4.0000 </r>
       <r>     0.3245     0.0000     4.0000 </r>
       <r>     0.3812     0.0000     4.0000 </r>
       <r>     0.4380     0.0000     4.0000 </r>
       <r>     0.4947     0.0000     4.0000 </r>
       <r>     0.5514     0.0000     4.0000 </r>
       <r>     0.6082     0.0000     4.0000 </r>
       <r>     0.6649     0.0000     4.0000 </r>
       <r>     0.7216     0.0000     4.0000 </r>
       <r>     0.7783     0.0000     4.0000 </r>
       <r>     0.8351     0.0000     4.0000 </r>
       <r>     0.8918     0.0000     4.0000 </r>
       <r>     0.9485     0.0000     4.0000 </r>
       <r>     1.0053     0.0000     4.0000 </r>
       <r>     1.0620     0.0000     4.0000 </r>
       <r>     1.1187     0.0000     4.0000 </r>
       <r>     1.1754     0.0000     4.0000 </r>
       <r>     1.2322     0.0000     4.0000 </r>
       <r>     1.2889     0.0000     4.0000 </r>
       <r>     1.3456     0.0049     4.0003 </r>
       <r>     1.4024     0.0097     4.0008 </r>
       <r>     1.4591     0.0152     4.0017 </r>
       <r>     1.5158     0.0311     4.0035 </r>
       <r>     1.5726     0.0634     4.0071 </r>
       <r>     1.6293     0.1289     4.0144 </r>
       <r>     1.6860     0.2648     4.0294 </r>
       <r>     1.7427     0.5286     4.0594 </r>
       <r>     1.7995     1.0233     4.1174 </r>
       <r>     1.8562     1.8980     4.2251 </r>
       <r>     1.9129     3.2388     4.4088 </r>
       <r>     1.9697     4.8572     4.6844 </r>
       <r>     2.0264     6.1046     5.0307 </r>
       <r>     2.0831     6.3602     5.3915 </r>
       <r>     2.1399     5.7335     5.7168 </r>
       <r>     2.1966     5.0738     6.0046 </r>
       <r>     2.2533     5.1487     6.2967 </r>
       <r>     2.3100     6.0167     6.6380 </r>
       <r>     2.3668     7.0122     7.0358 </r>
       <r>     2.4235     7.3639     7.4536 </r>
       <r>     2.4802     7.0888     7.8557 </r>
       <r>     2.5370     6.9285     8.2488 </r>
       <r>     2.5937     7.2012     8.6573 </r>
       <r>     2.6504     7.2163     9.0672 </r>
       <r>     2.7072     6.2103     9.4201 </r>
       <r>     2.7639     4.4384     9.6719 </r>
       <r>     2.8206     2.7178     9.8260 </r>
       <r>     2.8773     1.5024     9.9113 </r>
       <r>     2.9341     0.7828     9.9557 </r>
       <r>     2.9908     0.3931     9.9782 </r>
       <r>     3.0475     0.1890     9.9896 </r>
       <r>     3.1043     0.0931     9.9949 </r>
       <r>     3.1610     0.0457     9.9975 </r>
       <r>     3.2177     0.0224     9.9988 </r>
       <r>     3.2745     0.0000    10.0000 </r>
       <r>     3.3312     0.0000    10.0000 </r>
       <r>     3.3879     0.0000    10.0000 </r>
       <r>     3.4446     0.0000    10.0000 </r>
       <r>     3.5014     0.0000    10.0000 </r>
       <r>     3.5581     0.0000    10.0000 </r>
       <r>     3.6148     0.0000    10.0000 </r>
       <r>     3.6716     0.0000    10.0000 </r>
       <r>     3.7283     0.0000    10.0000 </r>
       <r>     3.7850     0.0000    10.0000 </r>
       <r>     3.8418     0.0000    10.0000 </r>
       <r>     3.8985     0.0000    10.0000 </r>
       <r>     3.9552     0.0000    10.0000 </r>
       <r>     4.0119     0.0084    10.0005 </r>
       <r>     4.0687     0.0088    10.0010 </r>
       <r>     4.1254     0.0180    10.0020 </r>
       <r>     4.1821     0.0367    10.0041 </r>
       <r>     4.2389     0.0767    10.0084 </r>
       <r>     4.2956     0.1613    10.0176 </r>
       <r>     4.3523     0.3182    10.0356 </r>
       <r>     4.4091     0.6340    10.0716 </r>
       <r>     4.4658     1.2302    10.1414 </r>
       <r>     4.5225     2.2717    10.2703 </r>
       <r>     4.5792     3.8427    10.4883 </r>
       <r>     4.6360     5.6637    10.8096 </r>
       <r>     4.6927     6.9772    11.2054 </r>
       <r>     4.7494     7.2452    11.6164 </r>
       <r>     4.8062     6.9525    12.0108 </r>
       <r>     4.8629     6.9470    12.4049 </r>
       <r>     4.9196     7.2094    12.8139 </r>
       <r>     4.9764     6.8982    13.2052 </r>
       <r>     5.0331     5.5719    13.5213 </r>
       <r>     5.0898     3.7705    13.7352 </r>
       <r>     5.1465     2.2265    13.8615 </r>
       <r>     5.2033     1.2067    13.9300 </r>
       <r>     5.2600     0.6226    13.9653 </r>
       <r>     5.3167     0.3098    13.9838 </r>
       <r>     5.3735     0.1625    13.9932 </r>
       <r>     5.4302     0.0974    13.9987 </r>
       <r>     5.4869     0.0851    14.0035 </r>
       <r>     5.5437     0.1145    14.0103 </r>
       <r>     5.6004     0.2013    14.0226 </r>
       <r>     5.6571     0.3999    14.0452 </r>
       <r>     5.7138     0.7720    14.0890 </r>
       <r>     5.7706     1.4159    14.1694 </r>
       <r>     5.8273     2.3873    14.3048 </r>
       <r>     5.8840     3.5776    14.5078 </r>
       <r>     5.9408     4.6719    14.7728 </r>
       <r>     5.9975     5.2940    15.0731 </r>
       <r>     6.0542     5.1677    15.3663 </r>
       <r>     6.1109     4.2786    15.6090 </r>
       <r>     6.1677     2.9991    15.7792 </r>
       <r>     6.2244     1.8278    15.8828 </r>
       <r>     6.2811     1.0108    15.9402 </r>
       <r>     6.3379     0.5273    15.9701 </r>
       <r>     6.3946     0.2665    15.9852 </r>
       <r>     6.4513     0.1324    15.9927 </r>
       <r>     6.5081     0.0653    15.9964 </r>
       <r>     6.5648     0.0303    15.9984 </r>
       <r>     6.6215     0.0127    15.9993 </r>
       <r>     6.6782     0.0037    15.9998 </r>
       <r>     6.7350     0.0000    16.0000 </r>
       <r>     6.7917     0.0000    16.0000 </r>
       <r>     6.8484     0.0000    16.0000 </r>
       <r>     6.9052     0.0000    16.0000 </r>
       <r>     6.9619     0.0000    16.0000 </r>
       <r>     7.0186     0.0000    16.0000 </r>
       <r>     7.0754     0.0000    16.0000 </r>
       <r>     7.1321     0.0025    16.0001 </r>
       <r>     7.1888     0.0066    16.0005 </r>
       <r>     7.2455     0.0095    16.0011 </r>
       <r>     7.3023     0.0217    16.0023 </r>
       <r>     7.3590     0.0420    16.0047 </r>
       <r>     7.4157     0.0855    16.0095 </r>
       <r>     7.4725     0.1744    16.0194 </r>
       <r>     7.5292     0.3543    16.0395 </r>
       <r>     7.5859     0.6872    16.0785 </r>
       <r>     7.6427     1.2941    16.1519 </r>
       <r>     7.6994     2.2706    16.2807 </r>
       <r>     7.7561     3.5808    16.4839 </r>
       <r>     7.8128     4.9054    16.7621 </r>
       <r>     7.8696     5.7765    17.0898 </r>
       <r>     7.9263     5.9708    17.4286 </r>
       <r>     7.9830     5.7782    17.7564 </r>
       <r>     8.0398     5.7816    18.0844 </r>
       <r>     8.0965     6.4306    18.4492 </r>
       <r>     8.1532     7.5878    18.8796 </r>
       <r>     8.2100     8.5027    19.3620 </r>
       <r>     8.2667     8.6877    19.8548 </r>
       <r>     8.3234     8.4422    20.3337 </r>
       <r>     8.3801     8.0263    20.7891 </r>
       <r>     8.4369     7.1484    21.1949 </r>
       <r>     8.4936     5.6092    21.5137 </r>
       <r>     8.5503     3.7985    21.7292 </r>
       <r>     8.6071     2.2608    21.8577 </r>
       <r>     8.6638     1.2336    21.9277 </r>
       <r>     8.7205     0.6388    21.9640 </r>
       <r>     8.7773     0.3215    21.9822 </r>
       <r>     8.8340     0.1530    21.9916 </r>
       <r>     8.8907     0.0738    21.9960 </r>
       <r>     8.9474     0.0362    21.9980 </r>
       <r>     9.0042     0.0158    21.9991 </r>
       <r>     9.0609     0.0031    21.9998 </r>
       <r>     9.1176     0.0000    22.0000 </r>
       <r>     9.1744     0.0000    22.0000 </r>
       <r>     9.2311     0.0000    22.0000 </r>
       <r>     9.2878     0.0000    22.0000 </r>
       <r>     9.3446     0.0000    22.0000 </r>
       <r>     9.4013     0.0000    22.0000 </r>
       <r>     9.4580     0.0000    22.0000 </r>
       <r>     9.5147     0.0000    22.0000 </r>
       <r>     9.5715     0.0020    22.0001 </r>
       <r>     9.6282     0.0041    22.0003 </r>
       <r>     9.6849     0.0063    22.0007 </r>
       <r>     9.7417     0.0128    22.0014 </r>
       <r>     9.7984     0.0262    22.0029 </r>
       <r>     9.8551     0.0548    22.0060 </r>
       <r>     9.9119     0.1095    22.0122 </r>
       <r>     9.9686     0.2195    22.0247 </r>
       <r>    10.0253     0.4310    22.0491 </r>
       <r>    10.0820     0.8135    22.0953 </r>
       <r>    10.1388     1.4300    22.1764 </r>
       <r>    10.1955     2.2356    22.3032 </r>
       <r>    10.2522     2.9589    22.4711 </r>
       <r>    10.3090     3.2219    22.6539 </r>
       <r>    10.3657     2.9486    22.8212 </r>
       <r>    10.4224     2.4875    22.9623 </r>
       <r>    10.4792     2.1938    23.0867 </r>
       <r>    10.5359     2.0615    23.2037 </r>
       <r>    10.5926     1.8346    23.3077 </r>
       <r>    10.6493     1.4005    23.3872 </r>
       <r>    10.7061     0.9083    23.4387 </r>
       <r>    10.7628     0.5214    23.4683 </r>
       <r>    10.8195     0.2775    23.4840 </r>
       <r>    10.8763     0.1388    23.4922 </r>
       <r>    10.9330     0.0665    23.4963 </r>
       <r>    10.9897     0.0329    23.4982 </r>
       <r>    11.0465     0.0162    23.4991 </r>
       <r>    11.1032     0.0079    23.4996 </r>
       <r>    11.1599     0.0039    23.4998 </r>
       <r>    11.2166     0.0000    23.5000 </r>
       <r>    11.2734     0.0000    23.5000 </r>
       <r>    11.3301     0.0016    23.5001 </r>
       <r>    11.3868     0.0017    23.5002 </r>
       <r>    11.4436     0.0034    23.5004 </r>
       <r>    11.5003     0.0070    23.5008 </r>
       <r>    11.5570     0.0144    23.5016 </r>
       <r>    11.6137     0.0292    23.5033 </r>
       <r>    11.6705     0.0592    23.5066 </r>
       <r>    11.7272     0.1186    23.5133 </r>
       <r>    11.7839     0.2329    23.5266 </r>
       <r>    11.8407     0.4390    23.5515 </r>
       <r>    11.8974     0.7681    23.5950 </r>
       <r>    11.9541     1.1833    23.6622 </r>
       <r>    12.0109     1.5079    23.7477 </r>
       <r>    12.0676     1.5174    23.8338 </r>
       <r>    12.1243     1.2043    23.9021 </r>
       <r>    12.1810     0.7882    23.9468 </r>
       <r>    12.2378     0.4528    23.9725 </r>
       <r>    12.2945     0.2409    23.9862 </r>
       <r>    12.3512     0.1229    23.9931 </r>
       <r>    12.4080     0.0614    23.9966 </r>
       <r>    12.4647     0.0303    23.9983 </r>
       <r>    12.5214     0.0149    23.9992 </r>
       <r>    12.5782     0.0073    23.9996 </r>
       <r>    12.6349     0.0036    23.9998 </r>
       <r>    12.6916     0.0000    24.0000 </r>
       <r>    12.7483     0.0000    24.0000 </r>
       <r>    12.8051     0.0000    24.0000 </r>
      </set>
     </set>
    </array>
   </total>
  </dos>
 </calculation>
 <structure name="finalpos" >
  <crystal>
   <varray name="basis" >
    <v>       7.09105799       0.00000000       0.00000000 </v>
    <v>       0.00000000       3.54552899       0.00000000 </v>
    <v>       0.00000000       0.00000000       3.54552899 </v>
   </varray>
   <i name="volume">     89.14010044 </i>
   <varray name="rec_basis" >
    <v>       0.14102268       0.00000000       0.00000000 </v>
    <v>       0.00000000       0.28204536       0.00000000 </v>
    <v>       0.00000000       0.00000000       0.28204536 </v>
   </varray>
  </crystal>
  <varray name="positions" >
   <v>       0.03451391       0.98306434       0.07737062 </v>
   <v>       0.41476746       0.03130102       0.89856611 </v>
   <v>       0.20203340       0.49631568       0.57492505 </v>
   <v>       0.84868523       0.48931895       0.44913822 </v>
  </varray>
  <varray name="velocities" >
   <v>       0.00038126       0.00061366       0.00245861 </v>
   <v>      -0.00183754       0.00055649      -0.00131597 </v>
   <v>       0.00167732      -0.00409695       0.00175490 </v>
   <v>      -0.00022104       0.00292681      -0.00289754 </v>
  </varray>
 </structure>
</modeling>
