 running on    6 nodes
 distr:  one band on    1 nodes,    6 groups
 md.x 0.99
 POSCAR found :  1 types and     7056 ions
Rc and Rl:   5.500000  7.321000
 TIPO = eam     
 TIPO1 = uknown p
 Using EAM

 EAM parameters: 
 C  =   9.9634  EPS  = 0.2048  A  = 3.5678  M  = 3.127  N  =  6.366  R1 =   5.500000


 ----------------------------------------------------------------------------- 
|                                                                             |
|           W    W    AA    RRRRR   N    N  II  N    N   GGGG   !!!           |
|           W    W   A  A   R    R  NN   N  II  NN   N  G    G  !!!           |
|           W    W  A    A  R    R  N N  N  II  N N  N  G       !!!           |
|           W WW W  AAAAAA  RRRRR   N  N N  II  N  N N  G  GGG   !            |
|           WW  WW  A    A  R   R   N   NN  II  N   NN  G    G                |
|           W    W  A    A  R    R  N    N  II  N    N   GGGG   !!!           |
|                                                                             |
|      VASP found  21165 degrees of freedom                                   |
|      the temperature will equal 2*E(kin)/ (degrees of freedom)              |
|      this differs from previous releases, where T was 2*E(kin)/(3 NIONS).   |
|      The new definition is more consistent                                  |
|                                                                             |
 ----------------------------------------------------------------------------- 

 Random init:         681        8252
 Random init:         681        8252
 Random init:         681        8252
 Random init:         681        8252
 Random init:         681        8252
 Random init:         681        8252
 alloco spazio per displ
       10 T=  1782. E= -.36005287E+05 F= -.37630400E+05 EK= 0.16251E+04 SP= 0.00E+00 SK= 0.00E+00
       20 T=  1360. E= -.36004948E+05 F= -.37244782E+05 EK= 0.12398E+04 SP= 0.00E+00 SK= 0.00E+00
       30 T=  1155. E= -.36004961E+05 F= -.37058090E+05 EK= 0.10531E+04 SP= 0.00E+00 SK= 0.00E+00
       40 T=  1182. E= -.36005098E+05 F= -.37082929E+05 EK= 0.10778E+04 SP= 0.00E+00 SK= 0.00E+00
       50 T=  1207. E= -.36005093E+05 F= -.37105523E+05 EK= 0.11004E+04 SP= 0.00E+00 SK= 0.00E+00
       60 T=  1206. E= -.36005063E+05 F= -.37104931E+05 EK= 0.10999E+04 SP= 0.00E+00 SK= 0.00E+00
       70 T=  1199. E= -.36005075E+05 F= -.37098629E+05 EK= 0.10936E+04 SP= 0.00E+00 SK= 0.00E+00
       80 T=  1176. E= -.36005032E+05 F= -.37077551E+05 EK= 0.10725E+04 SP= 0.00E+00 SK= 0.00E+00
       90 T=  1172. E= -.36005043E+05 F= -.37073922E+05 EK= 0.10689E+04 SP= 0.00E+00 SK= 0.00E+00
      100 T=  1177. E= -.36005075E+05 F= -.37078371E+05 EK= 0.10733E+04 SP= 0.00E+00 SK= 0.00E+00
      110 T=  1179. E= -.36005081E+05 F= -.37080079E+05 EK= 0.10750E+04 SP= 0.00E+00 SK= 0.00E+00
      120 T=  1175. E= -.36005078E+05 F= -.37076410E+05 EK= 0.10713E+04 SP= 0.00E+00 SK= 0.00E+00
      130 T=  1170. E= -.36005050E+05 F= -.37071655E+05 EK= 0.10666E+04 SP= 0.00E+00 SK= 0.00E+00
      140 T=  1166. E= -.36005056E+05 F= -.37068398E+05 EK= 0.10633E+04 SP= 0.00E+00 SK= 0.00E+00
      150 T=  1160. E= -.36005035E+05 F= -.37063107E+05 EK= 0.10581E+04 SP= 0.00E+00 SK= 0.00E+00
Randomizing velocities, T =  4000.
      160 T=  1958. E= -.35272931E+05 F= -.37058885E+05 EK= 0.17860E+04 SP= 0.00E+00 SK= 0.00E+00
      170 T=  1793. E= -.35272755E+05 F= -.36907758E+05 EK= 0.16350E+04 SP= 0.00E+00 SK= 0.00E+00
      180 T=  1621. E= -.35272721E+05 F= -.36750646E+05 EK= 0.14779E+04 SP= 0.00E+00 SK= 0.00E+00
Randomizing velocities, T =  4000.
      190 T=  1988. E= -.34910335E+05 F= -.36723450E+05 EK= 0.18131E+04 SP= 0.00E+00 SK= 0.00E+00
      200 T=  1953. E= -.34910234E+05 F= -.36690808E+05 EK= 0.17806E+04 SP= 0.00E+00 SK= 0.00E+00
      210 T=  1917. E= -.34910210E+05 F= -.36658746E+05 EK= 0.17485E+04 SP= 0.00E+00 SK= 0.00E+00
      220 T=  1882. E= -.34910199E+05 F= -.36626242E+05 EK= 0.17160E+04 SP= 0.00E+00 SK= 0.00E+00
      230 T=  1869. E= -.34910242E+05 F= -.36614879E+05 EK= 0.17046E+04 SP= 0.00E+00 SK= 0.00E+00
      240 T=  1873. E= -.34910291E+05 F= -.36618478E+05 EK= 0.17082E+04 SP= 0.00E+00 SK= 0.00E+00
      250 T=  1862. E= -.34910294E+05 F= -.36607968E+05 EK= 0.16977E+04 SP= 0.00E+00 SK= 0.00E+00
      260 T=  1848. E= -.34910308E+05 F= -.36595860E+05 EK= 0.16856E+04 SP= 0.00E+00 SK= 0.00E+00
      270 T=  1807. E= -.34910246E+05 F= -.36558229E+05 EK= 0.16480E+04 SP= 0.00E+00 SK= 0.00E+00
      280 T=  1798. E= -.34910269E+05 F= -.36550327E+05 EK= 0.16401E+04 SP= 0.00E+00 SK= 0.00E+00
      290 T=  1814. E= -.34910313E+05 F= -.36564736E+05 EK= 0.16544E+04 SP= 0.00E+00 SK= 0.00E+00
      300 T=  1822. E= -.34910310E+05 F= -.36572142E+05 EK= 0.16618E+04 SP= 0.00E+00 SK= 0.00E+00
      310 T=  1807. E= -.34910279E+05 F= -.36558419E+05 EK= 0.16481E+04 SP= 0.00E+00 SK= 0.00E+00
      320 T=  1791. E= -.34910236E+05 F= -.36543367E+05 EK= 0.16331E+04 SP= 0.00E+00 SK= 0.00E+00
      330 T=  1816. E= -.34910298E+05 F= -.36566369E+05 EK= 0.16561E+04 SP= 0.00E+00 SK= 0.00E+00
      340 T=  1818. E= -.34910228E+05 F= -.36568474E+05 EK= 0.16582E+04 SP= 0.00E+00 SK= 0.00E+00
      350 T=  1824. E= -.34910252E+05 F= -.36573696E+05 EK= 0.16634E+04 SP= 0.00E+00 SK= 0.00E+00
      360 T=  1814. E= -.34910227E+05 F= -.36564650E+05 EK= 0.16544E+04 SP= 0.00E+00 SK= 0.00E+00
      370 T=  1812. E= -.34910261E+05 F= -.36563063E+05 EK= 0.16528E+04 SP= 0.00E+00 SK= 0.00E+00
      380 T=  1811. E= -.34910277E+05 F= -.36561383E+05 EK= 0.16511E+04 SP= 0.00E+00 SK= 0.00E+00
      390 T=  1793. E= -.34910301E+05 F= -.36544948E+05 EK= 0.16346E+04 SP= 0.00E+00 SK= 0.00E+00
      400 T=  1782. E= -.34910301E+05 F= -.36535809E+05 EK= 0.16255E+04 SP= 0.00E+00 SK= 0.00E+00
      410 T=  1800. E= -.34910321E+05 F= -.36551511E+05 EK= 0.16412E+04 SP= 0.00E+00 SK= 0.00E+00
      420 T=  1811. E= -.34910328E+05 F= -.36561954E+05 EK= 0.16516E+04 SP= 0.00E+00 SK= 0.00E+00
      430 T=  1808. E= -.34910318E+05 F= -.36559452E+05 EK= 0.16491E+04 SP= 0.00E+00 SK= 0.00E+00
      440 T=  1804. E= -.34910334E+05 F= -.36555768E+05 EK= 0.16454E+04 SP= 0.00E+00 SK= 0.00E+00
      450 T=  1821. E= -.34910395E+05 F= -.36571236E+05 EK= 0.16608E+04 SP= 0.00E+00 SK= 0.00E+00
      460 T=  1796. E= -.34910377E+05 F= -.36548417E+05 EK= 0.16380E+04 SP= 0.00E+00 SK= 0.00E+00
      470 T=  1784. E= -.34910360E+05 F= -.36537062E+05 EK= 0.16267E+04 SP= 0.00E+00 SK= 0.00E+00
      480 T=  1804. E= -.34910392E+05 F= -.36555527E+05 EK= 0.16451E+04 SP= 0.00E+00 SK= 0.00E+00
      490 T=  1803. E= -.34910371E+05 F= -.36554467E+05 EK= 0.16441E+04 SP= 0.00E+00 SK= 0.00E+00
      500 T=  1782. E= -.34910332E+05 F= -.36535244E+05 EK= 0.16249E+04 SP= 0.00E+00 SK= 0.00E+00
      510 T=  1807. E= -.34910362E+05 F= -.36558263E+05 EK= 0.16479E+04 SP= 0.00E+00 SK= 0.00E+00
      520 T=  1828. E= -.34910343E+05 F= -.36577409E+05 EK= 0.16671E+04 SP= 0.00E+00 SK= 0.00E+00
      530 T=  1807. E= -.34910280E+05 F= -.36558260E+05 EK= 0.16480E+04 SP= 0.00E+00 SK= 0.00E+00
      540 T=  1773. E= -.34910228E+05 F= -.36526986E+05 EK= 0.16168E+04 SP= 0.00E+00 SK= 0.00E+00
      550 T=  1780. E= -.34910277E+05 F= -.36533899E+05 EK= 0.16236E+04 SP= 0.00E+00 SK= 0.00E+00
      560 T=  1785. E= -.34910245E+05 F= -.36538223E+05 EK= 0.16280E+04 SP= 0.00E+00 SK= 0.00E+00
      570 T=  1804. E= -.34910225E+05 F= -.36555732E+05 EK= 0.16455E+04 SP= 0.00E+00 SK= 0.00E+00
      580 T=  1822. E= -.34910252E+05 F= -.36571496E+05 EK= 0.16612E+04 SP= 0.00E+00 SK= 0.00E+00
      590 T=  1808. E= -.34910271E+05 F= -.36558880E+05 EK= 0.16486E+04 SP= 0.00E+00 SK= 0.00E+00
      600 T=  1787. E= -.34910266E+05 F= -.36540015E+05 EK= 0.16297E+04 SP= 0.00E+00 SK= 0.00E+00
      610 T=  1789. E= -.34910276E+05 F= -.36541530E+05 EK= 0.16313E+04 SP= 0.00E+00 SK= 0.00E+00
      620 T=  1800. E= -.34910287E+05 F= -.36551530E+05 EK= 0.16412E+04 SP= 0.00E+00 SK= 0.00E+00
      630 T=  1783. E= -.34910285E+05 F= -.36536543E+05 EK= 0.16263E+04 SP= 0.00E+00 SK= 0.00E+00
      640 T=  1791. E= -.34910260E+05 F= -.36543580E+05 EK= 0.16333E+04 SP= 0.00E+00 SK= 0.00E+00
      650 T=  1804. E= -.34910273E+05 F= -.36555258E+05 EK= 0.16450E+04 SP= 0.00E+00 SK= 0.00E+00
      660 T=  1786. E= -.34910273E+05 F= -.36539145E+05 EK= 0.16289E+04 SP= 0.00E+00 SK= 0.00E+00
      670 T=  1792. E= -.34910272E+05 F= -.36544651E+05 EK= 0.16344E+04 SP= 0.00E+00 SK= 0.00E+00
      680 T=  1818. E= -.34910328E+05 F= -.36567886E+05 EK= 0.16576E+04 SP= 0.00E+00 SK= 0.00E+00
      690 T=  1811. E= -.34910278E+05 F= -.36561401E+05 EK= 0.16511E+04 SP= 0.00E+00 SK= 0.00E+00
      700 T=  1804. E= -.34910305E+05 F= -.36555824E+05 EK= 0.16455E+04 SP= 0.00E+00 SK= 0.00E+00
      710 T=  1790. E= -.34910236E+05 F= -.36542478E+05 EK= 0.16322E+04 SP= 0.00E+00 SK= 0.00E+00
      720 T=  1791. E= -.34910241E+05 F= -.36543235E+05 EK= 0.16330E+04 SP= 0.00E+00 SK= 0.00E+00
      730 T=  1797. E= -.34910228E+05 F= -.36549378E+05 EK= 0.16392E+04 SP= 0.00E+00 SK= 0.00E+00
      740 T=  1804. E= -.34910231E+05 F= -.36554985E+05 EK= 0.16448E+04 SP= 0.00E+00 SK= 0.00E+00
      750 T=  1821. E= -.34910276E+05 F= -.36570980E+05 EK= 0.16607E+04 SP= 0.00E+00 SK= 0.00E+00
Randomizing velocities, T =  4000.
      760 T=  1991. E= -.34731332E+05 F= -.36547121E+05 EK= 0.18158E+04 SP= 0.00E+00 SK= 0.00E+00
      770 T=  1929. E= -.34731302E+05 F= -.36490066E+05 EK= 0.17588E+04 SP= 0.00E+00 SK= 0.00E+00
      780 T=  1919. E= -.34731325E+05 F= -.36481286E+05 EK= 0.17500E+04 SP= 0.00E+00 SK= 0.00E+00
      790 T=  1929. E= -.34731295E+05 F= -.36490378E+05 EK= 0.17591E+04 SP= 0.00E+00 SK= 0.00E+00
      800 T=  1926. E= -.34731266E+05 F= -.36487759E+05 EK= 0.17565E+04 SP= 0.00E+00 SK= 0.00E+00
      810 T=  1923. E= -.34731246E+05 F= -.36484453E+05 EK= 0.17532E+04 SP= 0.00E+00 SK= 0.00E+00
      820 T=  1913. E= -.34731229E+05 F= -.36475994E+05 EK= 0.17448E+04 SP= 0.00E+00 SK= 0.00E+00
      830 T=  1898. E= -.34731223E+05 F= -.36462458E+05 EK= 0.17312E+04 SP= 0.00E+00 SK= 0.00E+00
      840 T=  1899. E= -.34731206E+05 F= -.36463164E+05 EK= 0.17320E+04 SP= 0.00E+00 SK= 0.00E+00
      850 T=  1912. E= -.34731231E+05 F= -.36475061E+05 EK= 0.17438E+04 SP= 0.00E+00 SK= 0.00E+00
      860 T=  1911. E= -.34731210E+05 F= -.36474317E+05 EK= 0.17431E+04 SP= 0.00E+00 SK= 0.00E+00
      870 T=  1893. E= -.34731183E+05 F= -.36457474E+05 EK= 0.17263E+04 SP= 0.00E+00 SK= 0.00E+00
      880 T=  1893. E= -.34731175E+05 F= -.36457689E+05 EK= 0.17265E+04 SP= 0.00E+00 SK= 0.00E+00
      890 T=  1908. E= -.34731149E+05 F= -.36470948E+05 EK= 0.17398E+04 SP= 0.00E+00 SK= 0.00E+00
      900 T=  1929. E= -.34731198E+05 F= -.36490309E+05 EK= 0.17591E+04 SP= 0.00E+00 SK= 0.00E+00
      910 T=  1926. E= -.34731217E+05 F= -.36488054E+05 EK= 0.17568E+04 SP= 0.00E+00 SK= 0.00E+00
      920 T=  1913. E= -.34731197E+05 F= -.36476137E+05 EK= 0.17449E+04 SP= 0.00E+00 SK= 0.00E+00
      930 T=  1923. E= -.34731221E+05 F= -.36484457E+05 EK= 0.17532E+04 SP= 0.00E+00 SK= 0.00E+00
      940 T=  1938. E= -.34731230E+05 F= -.36498714E+05 EK= 0.17675E+04 SP= 0.00E+00 SK= 0.00E+00
      950 T=  1941. E= -.34731222E+05 F= -.36501203E+05 EK= 0.17700E+04 SP= 0.00E+00 SK= 0.00E+00
      960 T=  1922. E= -.34731233E+05 F= -.36483602E+05 EK= 0.17524E+04 SP= 0.00E+00 SK= 0.00E+00
      970 T=  1910. E= -.34731261E+05 F= -.36473331E+05 EK= 0.17421E+04 SP= 0.00E+00 SK= 0.00E+00
      980 T=  1894. E= -.34731215E+05 F= -.36458357E+05 EK= 0.17271E+04 SP= 0.00E+00 SK= 0.00E+00
      990 T=  1889. E= -.34731220E+05 F= -.36454241E+05 EK= 0.17230E+04 SP= 0.00E+00 SK= 0.00E+00
     1000 T=  1897. E= -.34731180E+05 F= -.36461436E+05 EK= 0.17303E+04 SP= 0.00E+00 SK= 0.00E+00
     1010 T=  1926. E= -.34731227E+05 F= -.36487538E+05 EK= 0.17563E+04 SP= 0.00E+00 SK= 0.00E+00
     1020 T=  1919. E= -.34731140E+05 F= -.36481004E+05 EK= 0.17499E+04 SP= 0.00E+00 SK= 0.00E+00
     1030 T=  1915. E= -.34731096E+05 F= -.36477058E+05 EK= 0.17460E+04 SP= 0.00E+00 SK= 0.00E+00
     1040 T=  1914. E= -.34731073E+05 F= -.36476319E+05 EK= 0.17452E+04 SP= 0.00E+00 SK= 0.00E+00
     1050 T=  1886. E= -.34731040E+05 F= -.36450730E+05 EK= 0.17197E+04 SP= 0.00E+00 SK= 0.00E+00
     1060 T=  1896. E= -.34731067E+05 F= -.36459962E+05 EK= 0.17289E+04 SP= 0.00E+00 SK= 0.00E+00
     1070 T=  1910. E= -.34731050E+05 F= -.36472985E+05 EK= 0.17419E+04 SP= 0.00E+00 SK= 0.00E+00
     1080 T=  1921. E= -.34731047E+05 F= -.36482660E+05 EK= 0.17516E+04 SP= 0.00E+00 SK= 0.00E+00
     1090 T=  1929. E= -.34731075E+05 F= -.36490546E+05 EK= 0.17595E+04 SP= 0.00E+00 SK= 0.00E+00
     1100 T=  1918. E= -.34731069E+05 F= -.36480125E+05 EK= 0.17491E+04 SP= 0.00E+00 SK= 0.00E+00
     1110 T=  1907. E= -.34731107E+05 F= -.36470087E+05 EK= 0.17390E+04 SP= 0.00E+00 SK= 0.00E+00
     1120 T=  1901. E= -.34731108E+05 F= -.36464503E+05 EK= 0.17334E+04 SP= 0.00E+00 SK= 0.00E+00
     1130 T=  1903. E= -.34731091E+05 F= -.36466080E+05 EK= 0.17350E+04 SP= 0.00E+00 SK= 0.00E+00
     1140 T=  1903. E= -.34731065E+05 F= -.36466774E+05 EK= 0.17357E+04 SP= 0.00E+00 SK= 0.00E+00
     1150 T=  1918. E= -.34731083E+05 F= -.36480312E+05 EK= 0.17492E+04 SP= 0.00E+00 SK= 0.00E+00
     1160 T=  1901. E= -.34731106E+05 F= -.36465102E+05 EK= 0.17340E+04 SP= 0.00E+00 SK= 0.00E+00
     1170 T=  1888. E= -.34731081E+05 F= -.36452506E+05 EK= 0.17214E+04 SP= 0.00E+00 SK= 0.00E+00
     1180 T=  1912. E= -.34731082E+05 F= -.36475042E+05 EK= 0.17440E+04 SP= 0.00E+00 SK= 0.00E+00
     1190 T=  1927. E= -.34731093E+05 F= -.36488515E+05 EK= 0.17574E+04 SP= 0.00E+00 SK= 0.00E+00
     1200 T=  1924. E= -.34731078E+05 F= -.36485867E+05 EK= 0.17548E+04 SP= 0.00E+00 SK= 0.00E+00
     1210 T=  1914. E= -.34731048E+05 F= -.36476526E+05 EK= 0.17455E+04 SP= 0.00E+00 SK= 0.00E+00
     1220 T=  1911. E= -.34731045E+05 F= -.36473740E+05 EK= 0.17427E+04 SP= 0.00E+00 SK= 0.00E+00
     1230 T=  1909. E= -.34731045E+05 F= -.36472234E+05 EK= 0.17412E+04 SP= 0.00E+00 SK= 0.00E+00
     1240 T=  1904. E= -.34731015E+05 F= -.36467630E+05 EK= 0.17366E+04 SP= 0.00E+00 SK= 0.00E+00
     1250 T=  1897. E= -.34730977E+05 F= -.36460617E+05 EK= 0.17296E+04 SP= 0.00E+00 SK= 0.00E+00
     1260 T=  1919. E= -.34731055E+05 F= -.36481423E+05 EK= 0.17504E+04 SP= 0.00E+00 SK= 0.00E+00
     1270 T=  1922. E= -.34731019E+05 F= -.36483565E+05 EK= 0.17525E+04 SP= 0.00E+00 SK= 0.00E+00
     1280 T=  1913. E= -.34731049E+05 F= -.36475660E+05 EK= 0.17446E+04 SP= 0.00E+00 SK= 0.00E+00
     1290 T=  1910. E= -.34731078E+05 F= -.36473324E+05 EK= 0.17422E+04 SP= 0.00E+00 SK= 0.00E+00
     1300 T=  1928. E= -.34731162E+05 F= -.36489553E+05 EK= 0.17584E+04 SP= 0.00E+00 SK= 0.00E+00
     1310 T=  1914. E= -.34731145E+05 F= -.36476667E+05 EK= 0.17455E+04 SP= 0.00E+00 SK= 0.00E+00
     1320 T=  1892. E= -.34731107E+05 F= -.36456534E+05 EK= 0.17254E+04 SP= 0.00E+00 SK= 0.00E+00
     1330 T=  1904. E= -.34731170E+05 F= -.36467067E+05 EK= 0.17359E+04 SP= 0.00E+00 SK= 0.00E+00
     1340 T=  1922. E= -.34731176E+05 F= -.36483682E+05 EK= 0.17525E+04 SP= 0.00E+00 SK= 0.00E+00
     1350 T=  1918. E= -.34731178E+05 F= -.36479849E+05 EK= 0.17487E+04 SP= 0.00E+00 SK= 0.00E+00
     1360 T=  1900. E= -.34731163E+05 F= -.36463404E+05 EK= 0.17322E+04 SP= 0.00E+00 SK= 0.00E+00
     1370 T=  1892. E= -.34731181E+05 F= -.36456202E+05 EK= 0.17250E+04 SP= 0.00E+00 SK= 0.00E+00
     1380 T=  1908. E= -.34731215E+05 F= -.36470912E+05 EK= 0.17397E+04 SP= 0.00E+00 SK= 0.00E+00
     1390 T=  1921. E= -.34731189E+05 F= -.36482752E+05 EK= 0.17516E+04 SP= 0.00E+00 SK= 0.00E+00
     1400 T=  1916. E= -.34731216E+05 F= -.36478216E+05 EK= 0.17470E+04 SP= 0.00E+00 SK= 0.00E+00
     1410 T=  1920. E= -.34731227E+05 F= -.36482432E+05 EK= 0.17512E+04 SP= 0.00E+00 SK= 0.00E+00
     1420 T=  1921. E= -.34731254E+05 F= -.36483438E+05 EK= 0.17522E+04 SP= 0.00E+00 SK= 0.00E+00
     1430 T=  1895. E= -.34731225E+05 F= -.36459228E+05 EK= 0.17280E+04 SP= 0.00E+00 SK= 0.00E+00
     1440 T=  1885. E= -.34731211E+05 F= -.36450626E+05 EK= 0.17194E+04 SP= 0.00E+00 SK= 0.00E+00
     1450 T=  1892. E= -.34731225E+05 F= -.36456931E+05 EK= 0.17257E+04 SP= 0.00E+00 SK= 0.00E+00
     1460 T=  1916. E= -.34731253E+05 F= -.36478352E+05 EK= 0.17471E+04 SP= 0.00E+00 SK= 0.00E+00
     1470 T=  1936. E= -.34731295E+05 F= -.36496670E+05 EK= 0.17654E+04 SP= 0.00E+00 SK= 0.00E+00
     1480 T=  1927. E= -.34731265E+05 F= -.36488668E+05 EK= 0.17574E+04 SP= 0.00E+00 SK= 0.00E+00
     1490 T=  1911. E= -.34731272E+05 F= -.36474147E+05 EK= 0.17429E+04 SP= 0.00E+00 SK= 0.00E+00
     1500 T=  1911. E= -.34731249E+05 F= -.36474087E+05 EK= 0.17428E+04 SP= 0.00E+00 SK= 0.00E+00
     1510 T=  1911. E= -.34731226E+05 F= -.36474245E+05 EK= 0.17430E+04 SP= 0.00E+00 SK= 0.00E+00
     1520 T=  1907. E= -.34731265E+05 F= -.36470714E+05 EK= 0.17394E+04 SP= 0.00E+00 SK= 0.00E+00
     1530 T=  1904. E= -.34731221E+05 F= -.36467826E+05 EK= 0.17366E+04 SP= 0.00E+00 SK= 0.00E+00
     1540 T=  1925. E= -.34731225E+05 F= -.36486467E+05 EK= 0.17552E+04 SP= 0.00E+00 SK= 0.00E+00
     1550 T=  1940. E= -.34731263E+05 F= -.36500708E+05 EK= 0.17694E+04 SP= 0.00E+00 SK= 0.00E+00
     1560 T=  1923. E= -.34731264E+05 F= -.36484968E+05 EK= 0.17537E+04 SP= 0.00E+00 SK= 0.00E+00
     1570 T=  1914. E= -.34731297E+05 F= -.36477161E+05 EK= 0.17459E+04 SP= 0.00E+00 SK= 0.00E+00
     1580 T=  1902. E= -.34731265E+05 F= -.36465399E+05 EK= 0.17341E+04 SP= 0.00E+00 SK= 0.00E+00
     1590 T=  1895. E= -.34731233E+05 F= -.36459241E+05 EK= 0.17280E+04 SP= 0.00E+00 SK= 0.00E+00
     1600 T=  1913. E= -.34731219E+05 F= -.36476062E+05 EK= 0.17448E+04 SP= 0.00E+00 SK= 0.00E+00
     1610 T=  1929. E= -.34731253E+05 F= -.36490675E+05 EK= 0.17594E+04 SP= 0.00E+00 SK= 0.00E+00
     1620 T=  1924. E= -.34731252E+05 F= -.36485885E+05 EK= 0.17546E+04 SP= 0.00E+00 SK= 0.00E+00
     1630 T=  1893. E= -.34731225E+05 F= -.36457913E+05 EK= 0.17267E+04 SP= 0.00E+00 SK= 0.00E+00
     1640 T=  1881. E= -.34731215E+05 F= -.36446204E+05 EK= 0.17150E+04 SP= 0.00E+00 SK= 0.00E+00
     1650 T=  1931. E= -.34731281E+05 F= -.36491980E+05 EK= 0.17607E+04 SP= 0.00E+00 SK= 0.00E+00
     1660 T=  1947. E= -.34731246E+05 F= -.36506350E+05 EK= 0.17751E+04 SP= 0.00E+00 SK= 0.00E+00
     1670 T=  1935. E= -.34731243E+05 F= -.36495911E+05 EK= 0.17647E+04 SP= 0.00E+00 SK= 0.00E+00
     1680 T=  1901. E= -.34731232E+05 F= -.36464701E+05 EK= 0.17335E+04 SP= 0.00E+00 SK= 0.00E+00
     1690 T=  1875. E= -.34731247E+05 F= -.36441008E+05 EK= 0.17098E+04 SP= 0.00E+00 SK= 0.00E+00
     1700 T=  1889. E= -.34731274E+05 F= -.36453770E+05 EK= 0.17225E+04 SP= 0.00E+00 SK= 0.00E+00
     1710 T=  1908. E= -.34731234E+05 F= -.36471408E+05 EK= 0.17402E+04 SP= 0.00E+00 SK= 0.00E+00
     1720 T=  1916. E= -.34731252E+05 F= -.36478867E+05 EK= 0.17476E+04 SP= 0.00E+00 SK= 0.00E+00
     1730 T=  1903. E= -.34731271E+05 F= -.36466932E+05 EK= 0.17357E+04 SP= 0.00E+00 SK= 0.00E+00
     1740 T=  1902. E= -.34731284E+05 F= -.36465375E+05 EK= 0.17341E+04 SP= 0.00E+00 SK= 0.00E+00
     1750 T=  1926. E= -.34731274E+05 F= -.36487943E+05 EK= 0.17567E+04 SP= 0.00E+00 SK= 0.00E+00
     1760 T=  1929. E= -.34731230E+05 F= -.36490228E+05 EK= 0.17590E+04 SP= 0.00E+00 SK= 0.00E+00
     1770 T=  1914. E= -.34731260E+05 F= -.36476336E+05 EK= 0.17451E+04 SP= 0.00E+00 SK= 0.00E+00
     1780 T=  1919. E= -.34731262E+05 F= -.36481598E+05 EK= 0.17503E+04 SP= 0.00E+00 SK= 0.00E+00
     1790 T=  1939. E= -.34731272E+05 F= -.36499918E+05 EK= 0.17686E+04 SP= 0.00E+00 SK= 0.00E+00
     1800 T=  1934. E= -.34731265E+05 F= -.36494943E+05 EK= 0.17637E+04 SP= 0.00E+00 SK= 0.00E+00
     1810 T=  1921. E= -.34731282E+05 F= -.36482704E+05 EK= 0.17514E+04 SP= 0.00E+00 SK= 0.00E+00
     1820 T=  1923. E= -.34731309E+05 F= -.36484877E+05 EK= 0.17536E+04 SP= 0.00E+00 SK= 0.00E+00
     1830 T=  1930. E= -.34731333E+05 F= -.36491365E+05 EK= 0.17600E+04 SP= 0.00E+00 SK= 0.00E+00
     1840 T=  1927. E= -.34731323E+05 F= -.36488172E+05 EK= 0.17568E+04 SP= 0.00E+00 SK= 0.00E+00
     1850 T=  1907. E= -.34731252E+05 F= -.36470026E+05 EK= 0.17388E+04 SP= 0.00E+00 SK= 0.00E+00
     1860 T=  1916. E= -.34731264E+05 F= -.36478820E+05 EK= 0.17476E+04 SP= 0.00E+00 SK= 0.00E+00
     1870 T=  1932. E= -.34731326E+05 F= -.36493189E+05 EK= 0.17619E+04 SP= 0.00E+00 SK= 0.00E+00
     1880 T=  1918. E= -.34731317E+05 F= -.36480092E+05 EK= 0.17488E+04 SP= 0.00E+00 SK= 0.00E+00
Randomizing velocities, T =  4000.
     1890 T=  2031. E= -.34647092E+05 F= -.36499016E+05 EK= 0.18519E+04 SP= 0.00E+00 SK= 0.00E+00
     1900 T=  1978. E= -.34647020E+05 F= -.36450625E+05 EK= 0.18036E+04 SP= 0.00E+00 SK= 0.00E+00
     1910 T=  1988. E= -.34647124E+05 F= -.36459649E+05 EK= 0.18125E+04 SP= 0.00E+00 SK= 0.00E+00
     1920 T=  1959. E= -.34647080E+05 F= -.36433858E+05 EK= 0.17868E+04 SP= 0.00E+00 SK= 0.00E+00
     1930 T=  1961. E= -.34647098E+05 F= -.36435441E+05 EK= 0.17883E+04 SP= 0.00E+00 SK= 0.00E+00
     1940 T=  1990. E= -.34647144E+05 F= -.36461493E+05 EK= 0.18143E+04 SP= 0.00E+00 SK= 0.00E+00
     1950 T=  1985. E= -.34647048E+05 F= -.36457296E+05 EK= 0.18102E+04 SP= 0.00E+00 SK= 0.00E+00
     1960 T=  1997. E= -.34647102E+05 F= -.36467824E+05 EK= 0.18207E+04 SP= 0.00E+00 SK= 0.00E+00
     1970 T=  1988. E= -.34647050E+05 F= -.36459685E+05 EK= 0.18126E+04 SP= 0.00E+00 SK= 0.00E+00
     1980 T=  1977. E= -.34647040E+05 F= -.36449831E+05 EK= 0.18028E+04 SP= 0.00E+00 SK= 0.00E+00
     1990 T=  1955. E= -.34647010E+05 F= -.36429515E+05 EK= 0.17825E+04 SP= 0.00E+00 SK= 0.00E+00
At line 1940 of file md.f90
Fortran runtime error: Unit number is negative and unit was not already opened with OPEN(NEWUNIT=...)

Error termination. Backtrace:
At line 1940 of file md.f90
Fortran runtime error: Unit number is negative and unit was not already opened with OPEN(NEWUNIT=...)

Error termination. Backtrace:
At line 1940 of file md.f90
Fortran runtime error: Unit number is negative and unit was not already opened with OPEN(NEWUNIT=...)

Error termination. Backtrace:
At line 1940 of file md.f90
Fortran runtime error: Unit number is negative and unit was not already opened with OPEN(NEWUNIT=...)
At line 1940 of file md.f90
Fortran runtime error: Unit number is negative and unit was not already opened with OPEN(NEWUNIT=...)

Error termination. Backtrace:

Error termination. Backtrace:
     2000 T=  1940. E= -.34646996E+05 F= -.36416227E+05 EK= 0.17692E+04 SP= 0.00E+00 SK= 0.00E+00
Rc and Rl:   5.500000  7.321000

Average number of steps between two list updates:  20.00
Average number of atoms in the shell:     0.01
#0  0x7feca779ed11 in ???
#1  0x7feca779f859 in ???
#2  0x7feca77a053f in ???
#3  0x55e35b13b0bc in ???
#4  0x55e35b13692e in ???
#5  0x7feca7435082 in __libc_start_main
	at ../csu/libc-start.c:308
#6  0x55e35b13696d in ???
#7  0xffffffffffffffff in ???
#0  0x7f29e90f7d11 in ???
#1  0x7f29e90f8859 in ???
#2  0x7f29e90f953f in ???
#3  0x563dfe3f20bc in ???
#4  0x563dfe3ed92e in ???
#5  0x7f29e8d8e082 in __libc_start_main
	at ../csu/libc-start.c:308
#6  0x563dfe3ed96d in ???
#7  0xffffffffffffffff in ???
