 running on    6 nodes
 distr:  one band on    1 nodes,    6 groups
 md.x 0.99
 POSCAR found :  1 types and     7056 ions
Rc and Rl:   5.500000  7.321000
 TIPO = eam     
 TIPO1 = uknown p
 Using EAM

 EAM parameters: 
 C  =   9.9634  EPS  = 0.2048  A  = 3.5678  M  = 3.127  N  =  6.366  R1 =   5.500000


 ----------------------------------------------------------------------------- 
|                                                                             |
|           W    W    AA    RRRRR   N    N  II  N    N   GGGG   !!!           |
|           W    W   A  A   R    R  NN   N  II  NN   N  G    G  !!!           |
|           W    W  A    A  R    R  N N  N  II  N N  N  G       !!!           |
|           W WW W  AAAAAA  RRRRR   N  N N  II  N  N N  G  GGG   !            |
|           WW  WW  A    A  R   R   N   NN  II  N   NN  G    G                |
|           W    W  A    A  R    R  N    N  II  N    N   GGGG   !!!           |
|                                                                             |
|      VASP found  21165 degrees of freedom                                   |
|      the temperature will equal 2*E(kin)/ (degrees of freedom)              |
|      this differs from previous releases, where T was 2*E(kin)/(3 NIONS).   |
|      The new definition is more consistent                                  |
|                                                                             |
 ----------------------------------------------------------------------------- 

 Random init:          33        7604
 Random init:          33        7604
 Random init:          33        7604
 Random init:          33        7604
 Random init:          33        7604
 Random init:          33        7604
 alloco spazio per displ
       10 T=   984. E= -.36684605E+05 F= -.37581760E+05 EK= 0.89715E+03 SP= 0.00E+00 SK= 0.00E+00
       20 T=   992. E= -.36684614E+05 F= -.37588966E+05 EK= 0.90435E+03 SP= 0.00E+00 SK= 0.00E+00
       30 T=   984. E= -.36684603E+05 F= -.37582268E+05 EK= 0.89767E+03 SP= 0.00E+00 SK= 0.00E+00
       40 T=   972. E= -.36684609E+05 F= -.37570980E+05 EK= 0.88637E+03 SP= 0.00E+00 SK= 0.00E+00
       50 T=   967. E= -.36684603E+05 F= -.37566406E+05 EK= 0.88180E+03 SP= 0.00E+00 SK= 0.00E+00
       60 T=   969. E= -.36684606E+05 F= -.37568653E+05 EK= 0.88405E+03 SP= 0.00E+00 SK= 0.00E+00
       70 T=   971. E= -.36684609E+05 F= -.37570252E+05 EK= 0.88564E+03 SP= 0.00E+00 SK= 0.00E+00
       80 T=   968. E= -.36684610E+05 F= -.37567726E+05 EK= 0.88312E+03 SP= 0.00E+00 SK= 0.00E+00
       90 T=   960. E= -.36684594E+05 F= -.37560250E+05 EK= 0.87566E+03 SP= 0.00E+00 SK= 0.00E+00
      100 T=   957. E= -.36684564E+05 F= -.37556987E+05 EK= 0.87242E+03 SP= 0.00E+00 SK= 0.00E+00
      110 T=   961. E= -.36684556E+05 F= -.37561110E+05 EK= 0.87655E+03 SP= 0.00E+00 SK= 0.00E+00
      120 T=   969. E= -.36684550E+05 F= -.37568304E+05 EK= 0.88375E+03 SP= 0.00E+00 SK= 0.00E+00
      130 T=   974. E= -.36684531E+05 F= -.37572964E+05 EK= 0.88843E+03 SP= 0.00E+00 SK= 0.00E+00
      140 T=   975. E= -.36684513E+05 F= -.37573339E+05 EK= 0.88883E+03 SP= 0.00E+00 SK= 0.00E+00
      150 T=   973. E= -.36684488E+05 F= -.37571469E+05 EK= 0.88698E+03 SP= 0.00E+00 SK= 0.00E+00
      160 T=   972. E= -.36684493E+05 F= -.37570651E+05 EK= 0.88616E+03 SP= 0.00E+00 SK= 0.00E+00
      170 T=   970. E= -.36684506E+05 F= -.37568948E+05 EK= 0.88444E+03 SP= 0.00E+00 SK= 0.00E+00
      180 T=   967. E= -.36684515E+05 F= -.37566386E+05 EK= 0.88187E+03 SP= 0.00E+00 SK= 0.00E+00
      190 T=   965. E= -.36684493E+05 F= -.37564807E+05 EK= 0.88031E+03 SP= 0.00E+00 SK= 0.00E+00
      200 T=   966. E= -.36684469E+05 F= -.37565697E+05 EK= 0.88123E+03 SP= 0.00E+00 SK= 0.00E+00
      210 T=   966. E= -.36684449E+05 F= -.37565173E+05 EK= 0.88072E+03 SP= 0.00E+00 SK= 0.00E+00
      220 T=   965. E= -.36684445E+05 F= -.37564484E+05 EK= 0.88004E+03 SP= 0.00E+00 SK= 0.00E+00
      230 T=   965. E= -.36684446E+05 F= -.37564225E+05 EK= 0.87978E+03 SP= 0.00E+00 SK= 0.00E+00
      240 T=   964. E= -.36684442E+05 F= -.37563716E+05 EK= 0.87927E+03 SP= 0.00E+00 SK= 0.00E+00
      250 T=   969. E= -.36684459E+05 F= -.37567689E+05 EK= 0.88323E+03 SP= 0.00E+00 SK= 0.00E+00
      260 T=   973. E= -.36684457E+05 F= -.37571747E+05 EK= 0.88729E+03 SP= 0.00E+00 SK= 0.00E+00
      270 T=   974. E= -.36684460E+05 F= -.37572952E+05 EK= 0.88849E+03 SP= 0.00E+00 SK= 0.00E+00
      280 T=   973. E= -.36684473E+05 F= -.37572188E+05 EK= 0.88772E+03 SP= 0.00E+00 SK= 0.00E+00
      290 T=   972. E= -.36684486E+05 F= -.37571132E+05 EK= 0.88665E+03 SP= 0.00E+00 SK= 0.00E+00
      300 T=   973. E= -.36684490E+05 F= -.37571472E+05 EK= 0.88698E+03 SP= 0.00E+00 SK= 0.00E+00
      310 T=   975. E= -.36684503E+05 F= -.37573481E+05 EK= 0.88898E+03 SP= 0.00E+00 SK= 0.00E+00
      320 T=   976. E= -.36684509E+05 F= -.37574672E+05 EK= 0.89016E+03 SP= 0.00E+00 SK= 0.00E+00
      330 T=   978. E= -.36684528E+05 F= -.37576487E+05 EK= 0.89196E+03 SP= 0.00E+00 SK= 0.00E+00
      340 T=   980. E= -.36684537E+05 F= -.37578305E+05 EK= 0.89377E+03 SP= 0.00E+00 SK= 0.00E+00
      350 T=   979. E= -.36684537E+05 F= -.37576914E+05 EK= 0.89238E+03 SP= 0.00E+00 SK= 0.00E+00
      360 T=   977. E= -.36684541E+05 F= -.37575056E+05 EK= 0.89051E+03 SP= 0.00E+00 SK= 0.00E+00
      370 T=   979. E= -.36684527E+05 F= -.37577219E+05 EK= 0.89269E+03 SP= 0.00E+00 SK= 0.00E+00
      380 T=   981. E= -.36684525E+05 F= -.37579547E+05 EK= 0.89502E+03 SP= 0.00E+00 SK= 0.00E+00
      390 T=   983. E= -.36684500E+05 F= -.37581004E+05 EK= 0.89650E+03 SP= 0.00E+00 SK= 0.00E+00
      400 T=   982. E= -.36684501E+05 F= -.37580442E+05 EK= 0.89594E+03 SP= 0.00E+00 SK= 0.00E+00
      410 T=   982. E= -.36684493E+05 F= -.37580130E+05 EK= 0.89564E+03 SP= 0.00E+00 SK= 0.00E+00
      420 T=   977. E= -.36684487E+05 F= -.37575306E+05 EK= 0.89082E+03 SP= 0.00E+00 SK= 0.00E+00
      430 T=   967. E= -.36684476E+05 F= -.37566705E+05 EK= 0.88223E+03 SP= 0.00E+00 SK= 0.00E+00
      440 T=   966. E= -.36684448E+05 F= -.37565806E+05 EK= 0.88136E+03 SP= 0.00E+00 SK= 0.00E+00
      450 T=   969. E= -.36684442E+05 F= -.37567874E+05 EK= 0.88343E+03 SP= 0.00E+00 SK= 0.00E+00
      460 T=   969. E= -.36684424E+05 F= -.37568031E+05 EK= 0.88361E+03 SP= 0.00E+00 SK= 0.00E+00
      470 T=   970. E= -.36684429E+05 F= -.37568842E+05 EK= 0.88441E+03 SP= 0.00E+00 SK= 0.00E+00
      480 T=   974. E= -.36684441E+05 F= -.37572373E+05 EK= 0.88793E+03 SP= 0.00E+00 SK= 0.00E+00
      490 T=   977. E= -.36684442E+05 F= -.37574949E+05 EK= 0.89051E+03 SP= 0.00E+00 SK= 0.00E+00
      500 T=   973. E= -.36684444E+05 F= -.37571546E+05 EK= 0.88710E+03 SP= 0.00E+00 SK= 0.00E+00
      510 T=   973. E= -.36684440E+05 F= -.37571399E+05 EK= 0.88696E+03 SP= 0.00E+00 SK= 0.00E+00
      520 T=   983. E= -.36684477E+05 F= -.37580587E+05 EK= 0.89611E+03 SP= 0.00E+00 SK= 0.00E+00
      530 T=   990. E= -.36684460E+05 F= -.37587370E+05 EK= 0.90291E+03 SP= 0.00E+00 SK= 0.00E+00
      540 T=   988. E= -.36684454E+05 F= -.37585015E+05 EK= 0.90056E+03 SP= 0.00E+00 SK= 0.00E+00
      550 T=   984. E= -.36684418E+05 F= -.37582038E+05 EK= 0.89762E+03 SP= 0.00E+00 SK= 0.00E+00
      560 T=   984. E= -.36684432E+05 F= -.37581552E+05 EK= 0.89712E+03 SP= 0.00E+00 SK= 0.00E+00
      570 T=   978. E= -.36684440E+05 F= -.37576028E+05 EK= 0.89159E+03 SP= 0.00E+00 SK= 0.00E+00
      580 T=   969. E= -.36684451E+05 F= -.37568444E+05 EK= 0.88399E+03 SP= 0.00E+00 SK= 0.00E+00
      590 T=   965. E= -.36684443E+05 F= -.37564848E+05 EK= 0.88041E+03 SP= 0.00E+00 SK= 0.00E+00
      600 T=   969. E= -.36684444E+05 F= -.37567699E+05 EK= 0.88326E+03 SP= 0.00E+00 SK= 0.00E+00
      610 T=   972. E= -.36684445E+05 F= -.37571023E+05 EK= 0.88658E+03 SP= 0.00E+00 SK= 0.00E+00
      620 T=   971. E= -.36684469E+05 F= -.37569719E+05 EK= 0.88525E+03 SP= 0.00E+00 SK= 0.00E+00
      630 T=   966. E= -.36684436E+05 F= -.37565753E+05 EK= 0.88132E+03 SP= 0.00E+00 SK= 0.00E+00
      640 T=   961. E= -.36684438E+05 F= -.37561240E+05 EK= 0.87680E+03 SP= 0.00E+00 SK= 0.00E+00
      650 T=   960. E= -.36684426E+05 F= -.37559812E+05 EK= 0.87539E+03 SP= 0.00E+00 SK= 0.00E+00
      660 T=   967. E= -.36684433E+05 F= -.37566563E+05 EK= 0.88213E+03 SP= 0.00E+00 SK= 0.00E+00
      670 T=   971. E= -.36684436E+05 F= -.37569933E+05 EK= 0.88550E+03 SP= 0.00E+00 SK= 0.00E+00
      680 T=   966. E= -.36684427E+05 F= -.37565611E+05 EK= 0.88118E+03 SP= 0.00E+00 SK= 0.00E+00
      690 T=   963. E= -.36684444E+05 F= -.37562912E+05 EK= 0.87847E+03 SP= 0.00E+00 SK= 0.00E+00
      700 T=   968. E= -.36684464E+05 F= -.37567146E+05 EK= 0.88268E+03 SP= 0.00E+00 SK= 0.00E+00
      710 T=   977. E= -.36684485E+05 F= -.37575382E+05 EK= 0.89090E+03 SP= 0.00E+00 SK= 0.00E+00
      720 T=   979. E= -.36684481E+05 F= -.37577207E+05 EK= 0.89273E+03 SP= 0.00E+00 SK= 0.00E+00
      730 T=   965. E= -.36684458E+05 F= -.37564781E+05 EK= 0.88032E+03 SP= 0.00E+00 SK= 0.00E+00
      740 T=   951. E= -.36684444E+05 F= -.37551877E+05 EK= 0.86743E+03 SP= 0.00E+00 SK= 0.00E+00
      750 T=   958. E= -.36684461E+05 F= -.37557781E+05 EK= 0.87332E+03 SP= 0.00E+00 SK= 0.00E+00
      760 T=   975. E= -.36684450E+05 F= -.37573199E+05 EK= 0.88875E+03 SP= 0.00E+00 SK= 0.00E+00
      770 T=   984. E= -.36684422E+05 F= -.37582116E+05 EK= 0.89769E+03 SP= 0.00E+00 SK= 0.00E+00
      780 T=   982. E= -.36684394E+05 F= -.37580324E+05 EK= 0.89593E+03 SP= 0.00E+00 SK= 0.00E+00
      790 T=   974. E= -.36684390E+05 F= -.37572959E+05 EK= 0.88857E+03 SP= 0.00E+00 SK= 0.00E+00
      800 T=   970. E= -.36684401E+05 F= -.37568879E+05 EK= 0.88448E+03 SP= 0.00E+00 SK= 0.00E+00
      810 T=   972. E= -.36684420E+05 F= -.37570658E+05 EK= 0.88624E+03 SP= 0.00E+00 SK= 0.00E+00
      820 T=   974. E= -.36684428E+05 F= -.37572324E+05 EK= 0.88790E+03 SP= 0.00E+00 SK= 0.00E+00
      830 T=   972. E= -.36684434E+05 F= -.37571108E+05 EK= 0.88667E+03 SP= 0.00E+00 SK= 0.00E+00
      840 T=   971. E= -.36684431E+05 F= -.37569876E+05 EK= 0.88545E+03 SP= 0.00E+00 SK= 0.00E+00
      850 T=   972. E= -.36684432E+05 F= -.37570468E+05 EK= 0.88604E+03 SP= 0.00E+00 SK= 0.00E+00
      860 T=   973. E= -.36684428E+05 F= -.37571524E+05 EK= 0.88710E+03 SP= 0.00E+00 SK= 0.00E+00
      870 T=   971. E= -.36684426E+05 F= -.37570159E+05 EK= 0.88573E+03 SP= 0.00E+00 SK= 0.00E+00
      880 T=   966. E= -.36684429E+05 F= -.37565790E+05 EK= 0.88136E+03 SP= 0.00E+00 SK= 0.00E+00
      890 T=   964. E= -.36684427E+05 F= -.37563756E+05 EK= 0.87933E+03 SP= 0.00E+00 SK= 0.00E+00
      900 T=   961. E= -.36684416E+05 F= -.37560359E+05 EK= 0.87594E+03 SP= 0.00E+00 SK= 0.00E+00
      910 T=   956. E= -.36684403E+05 F= -.37556428E+05 EK= 0.87202E+03 SP= 0.00E+00 SK= 0.00E+00
      920 T=   962. E= -.36684404E+05 F= -.37561908E+05 EK= 0.87750E+03 SP= 0.00E+00 SK= 0.00E+00
      930 T=   972. E= -.36684392E+05 F= -.37571207E+05 EK= 0.88681E+03 SP= 0.00E+00 SK= 0.00E+00
      940 T=   973. E= -.36684411E+05 F= -.37572008E+05 EK= 0.88760E+03 SP= 0.00E+00 SK= 0.00E+00
      950 T=   969. E= -.36684403E+05 F= -.37568113E+05 EK= 0.88371E+03 SP= 0.00E+00 SK= 0.00E+00
      960 T=   967. E= -.36684415E+05 F= -.37566222E+05 EK= 0.88181E+03 SP= 0.00E+00 SK= 0.00E+00
      970 T=   967. E= -.36684395E+05 F= -.37566179E+05 EK= 0.88178E+03 SP= 0.00E+00 SK= 0.00E+00
      980 T=   967. E= -.36684407E+05 F= -.37565940E+05 EK= 0.88153E+03 SP= 0.00E+00 SK= 0.00E+00
      990 T=   967. E= -.36684400E+05 F= -.37566657E+05 EK= 0.88226E+03 SP= 0.00E+00 SK= 0.00E+00
     1000 T=   973. E= -.36684433E+05 F= -.37571647E+05 EK= 0.88721E+03 SP= 0.00E+00 SK= 0.00E+00
     1010 T=   981. E= -.36684441E+05 F= -.37578697E+05 EK= 0.89426E+03 SP= 0.00E+00 SK= 0.00E+00
     1020 T=   983. E= -.36684449E+05 F= -.37580425E+05 EK= 0.89598E+03 SP= 0.00E+00 SK= 0.00E+00
     1030 T=   974. E= -.36684457E+05 F= -.37572843E+05 EK= 0.88839E+03 SP= 0.00E+00 SK= 0.00E+00
     1040 T=   961. E= -.36684454E+05 F= -.37560834E+05 EK= 0.87638E+03 SP= 0.00E+00 SK= 0.00E+00
     1050 T=   957. E= -.36684468E+05 F= -.37557209E+05 EK= 0.87274E+03 SP= 0.00E+00 SK= 0.00E+00
     1060 T=   965. E= -.36684502E+05 F= -.37564606E+05 EK= 0.88010E+03 SP= 0.00E+00 SK= 0.00E+00
     1070 T=   975. E= -.36684510E+05 F= -.37573285E+05 EK= 0.88877E+03 SP= 0.00E+00 SK= 0.00E+00
     1080 T=   979. E= -.36684502E+05 F= -.37577049E+05 EK= 0.89255E+03 SP= 0.00E+00 SK= 0.00E+00
     1090 T=   978. E= -.36684508E+05 F= -.37576748E+05 EK= 0.89224E+03 SP= 0.00E+00 SK= 0.00E+00
     1100 T=   974. E= -.36684514E+05 F= -.37572457E+05 EK= 0.88794E+03 SP= 0.00E+00 SK= 0.00E+00
     1110 T=   968. E= -.36684519E+05 F= -.37567312E+05 EK= 0.88279E+03 SP= 0.00E+00 SK= 0.00E+00
     1120 T=   962. E= -.36684540E+05 F= -.37562103E+05 EK= 0.87756E+03 SP= 0.00E+00 SK= 0.00E+00
     1130 T=   957. E= -.36684519E+05 F= -.37557625E+05 EK= 0.87311E+03 SP= 0.00E+00 SK= 0.00E+00
     1140 T=   959. E= -.36684515E+05 F= -.37559269E+05 EK= 0.87475E+03 SP= 0.00E+00 SK= 0.00E+00
     1150 T=   966. E= -.36684528E+05 F= -.37565384E+05 EK= 0.88086E+03 SP= 0.00E+00 SK= 0.00E+00
     1160 T=   969. E= -.36684533E+05 F= -.37568569E+05 EK= 0.88404E+03 SP= 0.00E+00 SK= 0.00E+00
     1170 T=   968. E= -.36684534E+05 F= -.37567736E+05 EK= 0.88320E+03 SP= 0.00E+00 SK= 0.00E+00
     1180 T=   969. E= -.36684512E+05 F= -.37568499E+05 EK= 0.88399E+03 SP= 0.00E+00 SK= 0.00E+00
     1190 T=   978. E= -.36684523E+05 F= -.37576639E+05 EK= 0.89212E+03 SP= 0.00E+00 SK= 0.00E+00
     1200 T=   985. E= -.36684519E+05 F= -.37582457E+05 EK= 0.89794E+03 SP= 0.00E+00 SK= 0.00E+00
     1210 T=   982. E= -.36684515E+05 F= -.37580458E+05 EK= 0.89594E+03 SP= 0.00E+00 SK= 0.00E+00
     1220 T=   978. E= -.36684502E+05 F= -.37576736E+05 EK= 0.89223E+03 SP= 0.00E+00 SK= 0.00E+00
     1230 T=   975. E= -.36684514E+05 F= -.37573351E+05 EK= 0.88884E+03 SP= 0.00E+00 SK= 0.00E+00
     1240 T=   968. E= -.36684508E+05 F= -.37566899E+05 EK= 0.88239E+03 SP= 0.00E+00 SK= 0.00E+00
     1250 T=   963. E= -.36684514E+05 F= -.37562929E+05 EK= 0.87841E+03 SP= 0.00E+00 SK= 0.00E+00
     1260 T=   963. E= -.36684530E+05 F= -.37562908E+05 EK= 0.87838E+03 SP= 0.00E+00 SK= 0.00E+00
     1270 T=   963. E= -.36684523E+05 F= -.37563125E+05 EK= 0.87860E+03 SP= 0.00E+00 SK= 0.00E+00
     1280 T=   963. E= -.36684521E+05 F= -.37562540E+05 EK= 0.87802E+03 SP= 0.00E+00 SK= 0.00E+00
     1290 T=   962. E= -.36684515E+05 F= -.37561716E+05 EK= 0.87720E+03 SP= 0.00E+00 SK= 0.00E+00
     1300 T=   965. E= -.36684487E+05 F= -.37564953E+05 EK= 0.88047E+03 SP= 0.00E+00 SK= 0.00E+00
     1310 T=   972. E= -.36684506E+05 F= -.37570660E+05 EK= 0.88615E+03 SP= 0.00E+00 SK= 0.00E+00
     1320 T=   973. E= -.36684496E+05 F= -.37571908E+05 EK= 0.88741E+03 SP= 0.00E+00 SK= 0.00E+00
     1330 T=   974. E= -.36684495E+05 F= -.37572760E+05 EK= 0.88827E+03 SP= 0.00E+00 SK= 0.00E+00
     1340 T=   973. E= -.36684478E+05 F= -.37571385E+05 EK= 0.88691E+03 SP= 0.00E+00 SK= 0.00E+00
     1350 T=   967. E= -.36684462E+05 F= -.37566710E+05 EK= 0.88225E+03 SP= 0.00E+00 SK= 0.00E+00
     1360 T=   965. E= -.36684466E+05 F= -.37564149E+05 EK= 0.87968E+03 SP= 0.00E+00 SK= 0.00E+00
     1370 T=   964. E= -.36684466E+05 F= -.37563131E+05 EK= 0.87867E+03 SP= 0.00E+00 SK= 0.00E+00
     1380 T=   964. E= -.36684459E+05 F= -.37563340E+05 EK= 0.87888E+03 SP= 0.00E+00 SK= 0.00E+00
     1390 T=   968. E= -.36684440E+05 F= -.37567123E+05 EK= 0.88268E+03 SP= 0.00E+00 SK= 0.00E+00
     1400 T=   969. E= -.36684427E+05 F= -.37568046E+05 EK= 0.88362E+03 SP= 0.00E+00 SK= 0.00E+00
     1410 T=   963. E= -.36684432E+05 F= -.37562470E+05 EK= 0.87804E+03 SP= 0.00E+00 SK= 0.00E+00
     1420 T=   958. E= -.36684429E+05 F= -.37557876E+05 EK= 0.87345E+03 SP= 0.00E+00 SK= 0.00E+00
     1430 T=   960. E= -.36684423E+05 F= -.37560013E+05 EK= 0.87559E+03 SP= 0.00E+00 SK= 0.00E+00
     1440 T=   966. E= -.36684420E+05 F= -.37565668E+05 EK= 0.88125E+03 SP= 0.00E+00 SK= 0.00E+00
     1450 T=   971. E= -.36684401E+05 F= -.37569923E+05 EK= 0.88552E+03 SP= 0.00E+00 SK= 0.00E+00
     1460 T=   974. E= -.36684406E+05 F= -.37572415E+05 EK= 0.88801E+03 SP= 0.00E+00 SK= 0.00E+00
     1470 T=   971. E= -.36684403E+05 F= -.37569447E+05 EK= 0.88504E+03 SP= 0.00E+00 SK= 0.00E+00
     1480 T=   967. E= -.36684406E+05 F= -.37566281E+05 EK= 0.88187E+03 SP= 0.00E+00 SK= 0.00E+00
     1490 T=   963. E= -.36684407E+05 F= -.37562809E+05 EK= 0.87840E+03 SP= 0.00E+00 SK= 0.00E+00
     1500 T=   962. E= -.36684414E+05 F= -.37561292E+05 EK= 0.87688E+03 SP= 0.00E+00 SK= 0.00E+00
     1510 T=   963. E= -.36684417E+05 F= -.37562327E+05 EK= 0.87791E+03 SP= 0.00E+00 SK= 0.00E+00
     1520 T=   961. E= -.36684427E+05 F= -.37561222E+05 EK= 0.87680E+03 SP= 0.00E+00 SK= 0.00E+00
     1530 T=   961. E= -.36684412E+05 F= -.37561052E+05 EK= 0.87664E+03 SP= 0.00E+00 SK= 0.00E+00
     1540 T=   964. E= -.36684403E+05 F= -.37563188E+05 EK= 0.87878E+03 SP= 0.00E+00 SK= 0.00E+00
     1550 T=   969. E= -.36684391E+05 F= -.37568147E+05 EK= 0.88376E+03 SP= 0.00E+00 SK= 0.00E+00
     1560 T=   976. E= -.36684407E+05 F= -.37574161E+05 EK= 0.88975E+03 SP= 0.00E+00 SK= 0.00E+00
     1570 T=   974. E= -.36684394E+05 F= -.37572452E+05 EK= 0.88806E+03 SP= 0.00E+00 SK= 0.00E+00
     1580 T=   966. E= -.36684385E+05 F= -.37565692E+05 EK= 0.88131E+03 SP= 0.00E+00 SK= 0.00E+00
     1590 T=   969. E= -.36684378E+05 F= -.37567729E+05 EK= 0.88335E+03 SP= 0.00E+00 SK= 0.00E+00
     1600 T=   978. E= -.36684399E+05 F= -.37576335E+05 EK= 0.89194E+03 SP= 0.00E+00 SK= 0.00E+00
     1610 T=   981. E= -.36684406E+05 F= -.37578930E+05 EK= 0.89452E+03 SP= 0.00E+00 SK= 0.00E+00
     1620 T=   972. E= -.36684420E+05 F= -.37570643E+05 EK= 0.88622E+03 SP= 0.00E+00 SK= 0.00E+00
     1630 T=   960. E= -.36684426E+05 F= -.37560242E+05 EK= 0.87582E+03 SP= 0.00E+00 SK= 0.00E+00
     1640 T=   958. E= -.36684432E+05 F= -.37558062E+05 EK= 0.87363E+03 SP= 0.00E+00 SK= 0.00E+00
     1650 T=   963. E= -.36684440E+05 F= -.37562481E+05 EK= 0.87804E+03 SP= 0.00E+00 SK= 0.00E+00
     1660 T=   968. E= -.36684459E+05 F= -.37566943E+05 EK= 0.88248E+03 SP= 0.00E+00 SK= 0.00E+00
     1670 T=   967. E= -.36684451E+05 F= -.37565878E+05 EK= 0.88143E+03 SP= 0.00E+00 SK= 0.00E+00
     1680 T=   961. E= -.36684437E+05 F= -.37560449E+05 EK= 0.87601E+03 SP= 0.00E+00 SK= 0.00E+00
     1690 T=   954. E= -.36684459E+05 F= -.37554391E+05 EK= 0.86993E+03 SP= 0.00E+00 SK= 0.00E+00
     1700 T=   955. E= -.36684433E+05 F= -.37554892E+05 EK= 0.87046E+03 SP= 0.00E+00 SK= 0.00E+00
     1710 T=   966. E= -.36684468E+05 F= -.37565274E+05 EK= 0.88081E+03 SP= 0.00E+00 SK= 0.00E+00
     1720 T=   968. E= -.36684477E+05 F= -.37567370E+05 EK= 0.88289E+03 SP= 0.00E+00 SK= 0.00E+00
     1730 T=   961. E= -.36684471E+05 F= -.37561007E+05 EK= 0.87654E+03 SP= 0.00E+00 SK= 0.00E+00
     1740 T=   960. E= -.36684480E+05 F= -.37560005E+05 EK= 0.87552E+03 SP= 0.00E+00 SK= 0.00E+00
     1750 T=   962. E= -.36684478E+05 F= -.37561655E+05 EK= 0.87718E+03 SP= 0.00E+00 SK= 0.00E+00
     1760 T=   963. E= -.36684438E+05 F= -.37562409E+05 EK= 0.87797E+03 SP= 0.00E+00 SK= 0.00E+00
     1770 T=   968. E= -.36684427E+05 F= -.37567455E+05 EK= 0.88303E+03 SP= 0.00E+00 SK= 0.00E+00
     1780 T=   979. E= -.36684440E+05 F= -.37577052E+05 EK= 0.89261E+03 SP= 0.00E+00 SK= 0.00E+00
     1790 T=   983. E= -.36684444E+05 F= -.37580526E+05 EK= 0.89608E+03 SP= 0.00E+00 SK= 0.00E+00
     1800 T=   977. E= -.36684460E+05 F= -.37574966E+05 EK= 0.89051E+03 SP= 0.00E+00 SK= 0.00E+00
     1810 T=   967. E= -.36684470E+05 F= -.37566625E+05 EK= 0.88216E+03 SP= 0.00E+00 SK= 0.00E+00
     1820 T=   963. E= -.36684454E+05 F= -.37562446E+05 EK= 0.87799E+03 SP= 0.00E+00 SK= 0.00E+00
     1830 T=   968. E= -.36684450E+05 F= -.37567464E+05 EK= 0.88301E+03 SP= 0.00E+00 SK= 0.00E+00
     1840 T=   978. E= -.36684456E+05 F= -.37576546E+05 EK= 0.89209E+03 SP= 0.00E+00 SK= 0.00E+00
     1850 T=   979. E= -.36684466E+05 F= -.37577058E+05 EK= 0.89259E+03 SP= 0.00E+00 SK= 0.00E+00
     1860 T=   971. E= -.36684437E+05 F= -.37569487E+05 EK= 0.88505E+03 SP= 0.00E+00 SK= 0.00E+00
     1870 T=   967. E= -.36684426E+05 F= -.37566126E+05 EK= 0.88170E+03 SP= 0.00E+00 SK= 0.00E+00
     1880 T=   969. E= -.36684426E+05 F= -.37568072E+05 EK= 0.88365E+03 SP= 0.00E+00 SK= 0.00E+00
     1890 T=   970. E= -.36684417E+05 F= -.37568733E+05 EK= 0.88432E+03 SP= 0.00E+00 SK= 0.00E+00
     1900 T=   967. E= -.36684429E+05 F= -.37566041E+05 EK= 0.88161E+03 SP= 0.00E+00 SK= 0.00E+00
     1910 T=   962. E= -.36684412E+05 F= -.37561395E+05 EK= 0.87698E+03 SP= 0.00E+00 SK= 0.00E+00
     1920 T=   962. E= -.36684438E+05 F= -.37561525E+05 EK= 0.87709E+03 SP= 0.00E+00 SK= 0.00E+00
     1930 T=   968. E= -.36684424E+05 F= -.37566983E+05 EK= 0.88256E+03 SP= 0.00E+00 SK= 0.00E+00
     1940 T=   973. E= -.36684435E+05 F= -.37571979E+05 EK= 0.88754E+03 SP= 0.00E+00 SK= 0.00E+00
     1950 T=   971. E= -.36684463E+05 F= -.37569864E+05 EK= 0.88540E+03 SP= 0.00E+00 SK= 0.00E+00
     1960 T=   968. E= -.36684479E+05 F= -.37567264E+05 EK= 0.88278E+03 SP= 0.00E+00 SK= 0.00E+00
     1970 T=   968. E= -.36684463E+05 F= -.37567633E+05 EK= 0.88317E+03 SP= 0.00E+00 SK= 0.00E+00
     1980 T=   968. E= -.36684462E+05 F= -.37566831E+05 EK= 0.88237E+03 SP= 0.00E+00 SK= 0.00E+00
     1990 T=   967. E= -.36684456E+05 F= -.37566078E+05 EK= 0.88162E+03 SP= 0.00E+00 SK= 0.00E+00
     2000 T=   964. E= -.36684466E+05 F= -.37563790E+05 EK= 0.87932E+03 SP= 0.00E+00 SK= 0.00E+00
     2010 T=   962. E= -.36684453E+05 F= -.37562183E+05 EK= 0.87773E+03 SP= 0.00E+00 SK= 0.00E+00
     2020 T=   965. E= -.36684453E+05 F= -.37564747E+05 EK= 0.88029E+03 SP= 0.00E+00 SK= 0.00E+00
     2030 T=   968. E= -.36684442E+05 F= -.37567172E+05 EK= 0.88273E+03 SP= 0.00E+00 SK= 0.00E+00
     2040 T=   970. E= -.36684426E+05 F= -.37568993E+05 EK= 0.88457E+03 SP= 0.00E+00 SK= 0.00E+00
     2050 T=   972. E= -.36684434E+05 F= -.37571234E+05 EK= 0.88680E+03 SP= 0.00E+00 SK= 0.00E+00
     2060 T=   975. E= -.36684434E+05 F= -.37573577E+05 EK= 0.88914E+03 SP= 0.00E+00 SK= 0.00E+00
     2070 T=   974. E= -.36684444E+05 F= -.37572526E+05 EK= 0.88808E+03 SP= 0.00E+00 SK= 0.00E+00
     2080 T=   963. E= -.36684452E+05 F= -.37562754E+05 EK= 0.87830E+03 SP= 0.00E+00 SK= 0.00E+00
     2090 T=   950. E= -.36684463E+05 F= -.37550453E+05 EK= 0.86599E+03 SP= 0.00E+00 SK= 0.00E+00
     2100 T=   949. E= -.36684472E+05 F= -.37549699E+05 EK= 0.86523E+03 SP= 0.00E+00 SK= 0.00E+00
     2110 T=   960. E= -.36684478E+05 F= -.37559650E+05 EK= 0.87517E+03 SP= 0.00E+00 SK= 0.00E+00
     2120 T=   964. E= -.36684488E+05 F= -.37563240E+05 EK= 0.87875E+03 SP= 0.00E+00 SK= 0.00E+00
     2130 T=   953. E= -.36684448E+05 F= -.37553630E+05 EK= 0.86918E+03 SP= 0.00E+00 SK= 0.00E+00
     2140 T=   948. E= -.36684440E+05 F= -.37549298E+05 EK= 0.86486E+03 SP= 0.00E+00 SK= 0.00E+00
     2150 T=   957. E= -.36684437E+05 F= -.37557414E+05 EK= 0.87298E+03 SP= 0.00E+00 SK= 0.00E+00
     2160 T=   961. E= -.36684451E+05 F= -.37561246E+05 EK= 0.87680E+03 SP= 0.00E+00 SK= 0.00E+00
     2170 T=   961. E= -.36684441E+05 F= -.37560398E+05 EK= 0.87596E+03 SP= 0.00E+00 SK= 0.00E+00
     2180 T=   968. E= -.36684447E+05 F= -.37567557E+05 EK= 0.88311E+03 SP= 0.00E+00 SK= 0.00E+00
     2190 T=   977. E= -.36684447E+05 F= -.37575178E+05 EK= 0.89073E+03 SP= 0.00E+00 SK= 0.00E+00
     2200 T=   976. E= -.36684443E+05 F= -.37574443E+05 EK= 0.89000E+03 SP= 0.00E+00 SK= 0.00E+00
     2210 T=   968. E= -.36684411E+05 F= -.37567489E+05 EK= 0.88308E+03 SP= 0.00E+00 SK= 0.00E+00
     2220 T=   962. E= -.36684388E+05 F= -.37562114E+05 EK= 0.87773E+03 SP= 0.00E+00 SK= 0.00E+00
     2230 T=   966. E= -.36684396E+05 F= -.37565313E+05 EK= 0.88092E+03 SP= 0.00E+00 SK= 0.00E+00
     2240 T=   973. E= -.36684397E+05 F= -.37571667E+05 EK= 0.88727E+03 SP= 0.00E+00 SK= 0.00E+00
     2250 T=   973. E= -.36684387E+05 F= -.37571739E+05 EK= 0.88735E+03 SP= 0.00E+00 SK= 0.00E+00
     2260 T=   965. E= -.36684375E+05 F= -.37564586E+05 EK= 0.88021E+03 SP= 0.00E+00 SK= 0.00E+00
     2270 T=   958. E= -.36684361E+05 F= -.37558259E+05 EK= 0.87390E+03 SP= 0.00E+00 SK= 0.00E+00
     2280 T=   962. E= -.36684380E+05 F= -.37561821E+05 EK= 0.87744E+03 SP= 0.00E+00 SK= 0.00E+00
     2290 T=   971. E= -.36684371E+05 F= -.37570003E+05 EK= 0.88563E+03 SP= 0.00E+00 SK= 0.00E+00
     2300 T=   974. E= -.36684380E+05 F= -.37573047E+05 EK= 0.88867E+03 SP= 0.00E+00 SK= 0.00E+00
     2310 T=   974. E= -.36684380E+05 F= -.37572281E+05 EK= 0.88790E+03 SP= 0.00E+00 SK= 0.00E+00
     2320 T=   972. E= -.36684373E+05 F= -.37571177E+05 EK= 0.88680E+03 SP= 0.00E+00 SK= 0.00E+00
     2330 T=   970. E= -.36684384E+05 F= -.37569406E+05 EK= 0.88502E+03 SP= 0.00E+00 SK= 0.00E+00
     2340 T=   970. E= -.36684373E+05 F= -.37569019E+05 EK= 0.88465E+03 SP= 0.00E+00 SK= 0.00E+00
     2350 T=   975. E= -.36684419E+05 F= -.37573548E+05 EK= 0.88913E+03 SP= 0.00E+00 SK= 0.00E+00
     2360 T=   976. E= -.36684430E+05 F= -.37574651E+05 EK= 0.89022E+03 SP= 0.00E+00 SK= 0.00E+00
     2370 T=   968. E= -.36684430E+05 F= -.37567404E+05 EK= 0.88297E+03 SP= 0.00E+00 SK= 0.00E+00
     2380 T=   964. E= -.36684436E+05 F= -.37563411E+05 EK= 0.87898E+03 SP= 0.00E+00 SK= 0.00E+00
     2390 T=   968. E= -.36684459E+05 F= -.37567150E+05 EK= 0.88269E+03 SP= 0.00E+00 SK= 0.00E+00
     2400 T=   973. E= -.36684440E+05 F= -.37571662E+05 EK= 0.88722E+03 SP= 0.00E+00 SK= 0.00E+00
     2410 T=   977. E= -.36684429E+05 F= -.37575119E+05 EK= 0.89069E+03 SP= 0.00E+00 SK= 0.00E+00
     2420 T=   976. E= -.36684448E+05 F= -.37574763E+05 EK= 0.89031E+03 SP= 0.00E+00 SK= 0.00E+00
     2430 T=   971. E= -.36684476E+05 F= -.37569707E+05 EK= 0.88523E+03 SP= 0.00E+00 SK= 0.00E+00
     2440 T=   965. E= -.36684452E+05 F= -.37564033E+05 EK= 0.87958E+03 SP= 0.00E+00 SK= 0.00E+00
     2450 T=   962. E= -.36684449E+05 F= -.37561619E+05 EK= 0.87717E+03 SP= 0.00E+00 SK= 0.00E+00
     2460 T=   966. E= -.36684458E+05 F= -.37565443E+05 EK= 0.88098E+03 SP= 0.00E+00 SK= 0.00E+00
     2470 T=   972. E= -.36684466E+05 F= -.37571071E+05 EK= 0.88661E+03 SP= 0.00E+00 SK= 0.00E+00
     2480 T=   974. E= -.36684459E+05 F= -.37573104E+05 EK= 0.88864E+03 SP= 0.00E+00 SK= 0.00E+00
     2490 T=   975. E= -.36684428E+05 F= -.37573550E+05 EK= 0.88912E+03 SP= 0.00E+00 SK= 0.00E+00
     2500 T=   975. E= -.36684422E+05 F= -.37573948E+05 EK= 0.88953E+03 SP= 0.00E+00 SK= 0.00E+00
     2510 T=   970. E= -.36684415E+05 F= -.37569228E+05 EK= 0.88481E+03 SP= 0.00E+00 SK= 0.00E+00
     2520 T=   967. E= -.36684400E+05 F= -.37566349E+05 EK= 0.88195E+03 SP= 0.00E+00 SK= 0.00E+00
     2530 T=   970. E= -.36684409E+05 F= -.37569290E+05 EK= 0.88488E+03 SP= 0.00E+00 SK= 0.00E+00
     2540 T=   971. E= -.36684412E+05 F= -.37570289E+05 EK= 0.88588E+03 SP= 0.00E+00 SK= 0.00E+00
     2550 T=   970. E= -.36684412E+05 F= -.37569057E+05 EK= 0.88464E+03 SP= 0.00E+00 SK= 0.00E+00
     2560 T=   967. E= -.36684433E+05 F= -.37566709E+05 EK= 0.88228E+03 SP= 0.00E+00 SK= 0.00E+00
     2570 T=   963. E= -.36684419E+05 F= -.37562646E+05 EK= 0.87823E+03 SP= 0.00E+00 SK= 0.00E+00
     2580 T=   962. E= -.36684437E+05 F= -.37562014E+05 EK= 0.87758E+03 SP= 0.00E+00 SK= 0.00E+00
     2590 T=   966. E= -.36684432E+05 F= -.37565159E+05 EK= 0.88073E+03 SP= 0.00E+00 SK= 0.00E+00
     2600 T=   967. E= -.36684439E+05 F= -.37566309E+05 EK= 0.88187E+03 SP= 0.00E+00 SK= 0.00E+00
     2610 T=   966. E= -.36684417E+05 F= -.37565446E+05 EK= 0.88103E+03 SP= 0.00E+00 SK= 0.00E+00
     2620 T=   971. E= -.36684408E+05 F= -.37570032E+05 EK= 0.88562E+03 SP= 0.00E+00 SK= 0.00E+00
     2630 T=   976. E= -.36684444E+05 F= -.37574212E+05 EK= 0.88977E+03 SP= 0.00E+00 SK= 0.00E+00
     2640 T=   972. E= -.36684431E+05 F= -.37570732E+05 EK= 0.88630E+03 SP= 0.00E+00 SK= 0.00E+00
     2650 T=   965. E= -.36684436E+05 F= -.37564413E+05 EK= 0.87998E+03 SP= 0.00E+00 SK= 0.00E+00
     2660 T=   961. E= -.36684428E+05 F= -.37560807E+05 EK= 0.87638E+03 SP= 0.00E+00 SK= 0.00E+00
     2670 T=   962. E= -.36684416E+05 F= -.37561962E+05 EK= 0.87755E+03 SP= 0.00E+00 SK= 0.00E+00
     2680 T=   966. E= -.36684400E+05 F= -.37565202E+05 EK= 0.88080E+03 SP= 0.00E+00 SK= 0.00E+00
     2690 T=   968. E= -.36684408E+05 F= -.37567608E+05 EK= 0.88320E+03 SP= 0.00E+00 SK= 0.00E+00
     2700 T=   969. E= -.36684415E+05 F= -.37567900E+05 EK= 0.88348E+03 SP= 0.00E+00 SK= 0.00E+00
     2710 T=   968. E= -.36684408E+05 F= -.37567614E+05 EK= 0.88321E+03 SP= 0.00E+00 SK= 0.00E+00
     2720 T=   971. E= -.36684415E+05 F= -.37570061E+05 EK= 0.88565E+03 SP= 0.00E+00 SK= 0.00E+00
     2730 T=   968. E= -.36684416E+05 F= -.37567395E+05 EK= 0.88298E+03 SP= 0.00E+00 SK= 0.00E+00
     2740 T=   962. E= -.36684406E+05 F= -.37561399E+05 EK= 0.87699E+03 SP= 0.00E+00 SK= 0.00E+00
     2750 T=   966. E= -.36684407E+05 F= -.37565324E+05 EK= 0.88092E+03 SP= 0.00E+00 SK= 0.00E+00
     2760 T=   973. E= -.36684407E+05 F= -.37571591E+05 EK= 0.88718E+03 SP= 0.00E+00 SK= 0.00E+00
     2770 T=   971. E= -.36684408E+05 F= -.37569623E+05 EK= 0.88521E+03 SP= 0.00E+00 SK= 0.00E+00
     2780 T=   965. E= -.36684390E+05 F= -.37564205E+05 EK= 0.87981E+03 SP= 0.00E+00 SK= 0.00E+00
     2790 T=   964. E= -.36684412E+05 F= -.37563526E+05 EK= 0.87911E+03 SP= 0.00E+00 SK= 0.00E+00
     2800 T=   968. E= -.36684402E+05 F= -.37567212E+05 EK= 0.88281E+03 SP= 0.00E+00 SK= 0.00E+00
     2810 T=   975. E= -.36684406E+05 F= -.37573411E+05 EK= 0.88900E+03 SP= 0.00E+00 SK= 0.00E+00
     2820 T=   979. E= -.36684418E+05 F= -.37577072E+05 EK= 0.89265E+03 SP= 0.00E+00 SK= 0.00E+00
     2830 T=   975. E= -.36684395E+05 F= -.37573833E+05 EK= 0.88944E+03 SP= 0.00E+00 SK= 0.00E+00
     2840 T=   972. E= -.36684405E+05 F= -.37570654E+05 EK= 0.88625E+03 SP= 0.00E+00 SK= 0.00E+00
     2850 T=   969. E= -.36684421E+05 F= -.37567799E+05 EK= 0.88338E+03 SP= 0.00E+00 SK= 0.00E+00
     2860 T=   964. E= -.36684394E+05 F= -.37563523E+05 EK= 0.87913E+03 SP= 0.00E+00 SK= 0.00E+00
     2870 T=   962. E= -.36684369E+05 F= -.37561706E+05 EK= 0.87734E+03 SP= 0.00E+00 SK= 0.00E+00
     2880 T=   964. E= -.36684373E+05 F= -.37563402E+05 EK= 0.87903E+03 SP= 0.00E+00 SK= 0.00E+00
     2890 T=   964. E= -.36684379E+05 F= -.37563254E+05 EK= 0.87888E+03 SP= 0.00E+00 SK= 0.00E+00
     2900 T=   963. E= -.36684392E+05 F= -.37562528E+05 EK= 0.87814E+03 SP= 0.00E+00 SK= 0.00E+00
     2910 T=   966. E= -.36684401E+05 F= -.37565372E+05 EK= 0.88097E+03 SP= 0.00E+00 SK= 0.00E+00
     2920 T=   969. E= -.36684437E+05 F= -.37567731E+05 EK= 0.88329E+03 SP= 0.00E+00 SK= 0.00E+00
     2930 T=   968. E= -.36684435E+05 F= -.37566755E+05 EK= 0.88232E+03 SP= 0.00E+00 SK= 0.00E+00
     2940 T=   966. E= -.36684396E+05 F= -.37565525E+05 EK= 0.88113E+03 SP= 0.00E+00 SK= 0.00E+00
     2950 T=   967. E= -.36684410E+05 F= -.37565902E+05 EK= 0.88149E+03 SP= 0.00E+00 SK= 0.00E+00
     2960 T=   963. E= -.36684419E+05 F= -.37562851E+05 EK= 0.87843E+03 SP= 0.00E+00 SK= 0.00E+00
     2970 T=   962. E= -.36684413E+05 F= -.37561953E+05 EK= 0.87754E+03 SP= 0.00E+00 SK= 0.00E+00
     2980 T=   967. E= -.36684442E+05 F= -.37566059E+05 EK= 0.88162E+03 SP= 0.00E+00 SK= 0.00E+00
     2990 T=   968. E= -.36684424E+05 F= -.37567153E+05 EK= 0.88273E+03 SP= 0.00E+00 SK= 0.00E+00
     3000 T=   963. E= -.36684400E+05 F= -.37562556E+05 EK= 0.87816E+03 SP= 0.00E+00 SK= 0.00E+00
     3010 T=   957. E= -.36684384E+05 F= -.37556958E+05 EK= 0.87257E+03 SP= 0.00E+00 SK= 0.00E+00
     3020 T=   960. E= -.36684399E+05 F= -.37559866E+05 EK= 0.87547E+03 SP= 0.00E+00 SK= 0.00E+00
     3030 T=   966. E= -.36684395E+05 F= -.37565703E+05 EK= 0.88131E+03 SP= 0.00E+00 SK= 0.00E+00
     3040 T=   964. E= -.36684398E+05 F= -.37563811E+05 EK= 0.87941E+03 SP= 0.00E+00 SK= 0.00E+00
     3050 T=   957. E= -.36684381E+05 F= -.37557474E+05 EK= 0.87309E+03 SP= 0.00E+00 SK= 0.00E+00
     3060 T=   960. E= -.36684389E+05 F= -.37559428E+05 EK= 0.87504E+03 SP= 0.00E+00 SK= 0.00E+00
     3070 T=   968. E= -.36684387E+05 F= -.37567347E+05 EK= 0.88296E+03 SP= 0.00E+00 SK= 0.00E+00
     3080 T=   971. E= -.36684382E+05 F= -.37569499E+05 EK= 0.88512E+03 SP= 0.00E+00 SK= 0.00E+00
     3090 T=   967. E= -.36684404E+05 F= -.37565867E+05 EK= 0.88146E+03 SP= 0.00E+00 SK= 0.00E+00
     3100 T=   966. E= -.36684387E+05 F= -.37565384E+05 EK= 0.88100E+03 SP= 0.00E+00 SK= 0.00E+00
     3110 T=   971. E= -.36684390E+05 F= -.37569821E+05 EK= 0.88543E+03 SP= 0.00E+00 SK= 0.00E+00
     3120 T=   975. E= -.36684389E+05 F= -.37573265E+05 EK= 0.88888E+03 SP= 0.00E+00 SK= 0.00E+00
     3130 T=   974. E= -.36684381E+05 F= -.37572620E+05 EK= 0.88824E+03 SP= 0.00E+00 SK= 0.00E+00
     3140 T=   967. E= -.36684355E+05 F= -.37566615E+05 EK= 0.88226E+03 SP= 0.00E+00 SK= 0.00E+00
     3150 T=   959. E= -.36684339E+05 F= -.37559186E+05 EK= 0.87485E+03 SP= 0.00E+00 SK= 0.00E+00
     3160 T=   956. E= -.36684336E+05 F= -.37556111E+05 EK= 0.87178E+03 SP= 0.00E+00 SK= 0.00E+00
     3170 T=   962. E= -.36684317E+05 F= -.37561430E+05 EK= 0.87711E+03 SP= 0.00E+00 SK= 0.00E+00
     3180 T=   973. E= -.36684330E+05 F= -.37571387E+05 EK= 0.88706E+03 SP= 0.00E+00 SK= 0.00E+00
     3190 T=   973. E= -.36684358E+05 F= -.37571582E+05 EK= 0.88722E+03 SP= 0.00E+00 SK= 0.00E+00
     3200 T=   965. E= -.36684359E+05 F= -.37564671E+05 EK= 0.88031E+03 SP= 0.00E+00 SK= 0.00E+00
     3210 T=   964. E= -.36684339E+05 F= -.37563218E+05 EK= 0.87888E+03 SP= 0.00E+00 SK= 0.00E+00
     3220 T=   968. E= -.36684351E+05 F= -.37566695E+05 EK= 0.88234E+03 SP= 0.00E+00 SK= 0.00E+00
     3230 T=   969. E= -.36684352E+05 F= -.37568178E+05 EK= 0.88383E+03 SP= 0.00E+00 SK= 0.00E+00
     3240 T=   969. E= -.36684370E+05 F= -.37567982E+05 EK= 0.88361E+03 SP= 0.00E+00 SK= 0.00E+00
     3250 T=   972. E= -.36684358E+05 F= -.37570775E+05 EK= 0.88642E+03 SP= 0.00E+00 SK= 0.00E+00
     3260 T=   974. E= -.36684352E+05 F= -.37572965E+05 EK= 0.88861E+03 SP= 0.00E+00 SK= 0.00E+00
     3270 T=   972. E= -.36684320E+05 F= -.37570534E+05 EK= 0.88621E+03 SP= 0.00E+00 SK= 0.00E+00
     3280 T=   972. E= -.36684317E+05 F= -.37570715E+05 EK= 0.88640E+03 SP= 0.00E+00 SK= 0.00E+00
     3290 T=   972. E= -.36684321E+05 F= -.37570929E+05 EK= 0.88661E+03 SP= 0.00E+00 SK= 0.00E+00
     3300 T=   969. E= -.36684333E+05 F= -.37567683E+05 EK= 0.88335E+03 SP= 0.00E+00 SK= 0.00E+00
     3310 T=   960. E= -.36684329E+05 F= -.37560025E+05 EK= 0.87570E+03 SP= 0.00E+00 SK= 0.00E+00
     3320 T=   952. E= -.36684341E+05 F= -.37552125E+05 EK= 0.86778E+03 SP= 0.00E+00 SK= 0.00E+00
     3330 T=   953. E= -.36684343E+05 F= -.37553498E+05 EK= 0.86916E+03 SP= 0.00E+00 SK= 0.00E+00
     3340 T=   961. E= -.36684345E+05 F= -.37560485E+05 EK= 0.87614E+03 SP= 0.00E+00 SK= 0.00E+00
     3350 T=   967. E= -.36684324E+05 F= -.37566551E+05 EK= 0.88223E+03 SP= 0.00E+00 SK= 0.00E+00
     3360 T=   972. E= -.36684308E+05 F= -.37571114E+05 EK= 0.88681E+03 SP= 0.00E+00 SK= 0.00E+00
     3370 T=   974. E= -.36684310E+05 F= -.37572403E+05 EK= 0.88809E+03 SP= 0.00E+00 SK= 0.00E+00
     3380 T=   968. E= -.36684301E+05 F= -.37566867E+05 EK= 0.88257E+03 SP= 0.00E+00 SK= 0.00E+00
     3390 T=   968. E= -.36684311E+05 F= -.37567350E+05 EK= 0.88304E+03 SP= 0.00E+00 SK= 0.00E+00
     3400 T=   980. E= -.36684314E+05 F= -.37577696E+05 EK= 0.89338E+03 SP= 0.00E+00 SK= 0.00E+00
     3410 T=   979. E= -.36684318E+05 F= -.37577498E+05 EK= 0.89318E+03 SP= 0.00E+00 SK= 0.00E+00
     3420 T=   971. E= -.36684289E+05 F= -.37569907E+05 EK= 0.88562E+03 SP= 0.00E+00 SK= 0.00E+00
     3430 T=   972. E= -.36684289E+05 F= -.37570473E+05 EK= 0.88618E+03 SP= 0.00E+00 SK= 0.00E+00
     3440 T=   976. E= -.36684310E+05 F= -.37574809E+05 EK= 0.89050E+03 SP= 0.00E+00 SK= 0.00E+00
     3450 T=   973. E= -.36684307E+05 F= -.37571322E+05 EK= 0.88701E+03 SP= 0.00E+00 SK= 0.00E+00
     3460 T=   961. E= -.36684301E+05 F= -.37560850E+05 EK= 0.87655E+03 SP= 0.00E+00 SK= 0.00E+00
     3470 T=   961. E= -.36684278E+05 F= -.37560677E+05 EK= 0.87640E+03 SP= 0.00E+00 SK= 0.00E+00
     3480 T=   972. E= -.36684283E+05 F= -.37570870E+05 EK= 0.88659E+03 SP= 0.00E+00 SK= 0.00E+00
     3490 T=   977. E= -.36684271E+05 F= -.37575319E+05 EK= 0.89105E+03 SP= 0.00E+00 SK= 0.00E+00
     3500 T=   975. E= -.36684276E+05 F= -.37573369E+05 EK= 0.88909E+03 SP= 0.00E+00 SK= 0.00E+00
     3510 T=   973. E= -.36684276E+05 F= -.37571943E+05 EK= 0.88767E+03 SP= 0.00E+00 SK= 0.00E+00
     3520 T=   972. E= -.36684246E+05 F= -.37570266E+05 EK= 0.88602E+03 SP= 0.00E+00 SK= 0.00E+00
     3530 T=   969. E= -.36684243E+05 F= -.37567483E+05 EK= 0.88324E+03 SP= 0.00E+00 SK= 0.00E+00
     3540 T=   966. E= -.36684237E+05 F= -.37565510E+05 EK= 0.88127E+03 SP= 0.00E+00 SK= 0.00E+00
     3550 T=   968. E= -.36684234E+05 F= -.37566833E+05 EK= 0.88260E+03 SP= 0.00E+00 SK= 0.00E+00
     3560 T=   973. E= -.36684281E+05 F= -.37571650E+05 EK= 0.88737E+03 SP= 0.00E+00 SK= 0.00E+00
     3570 T=   976. E= -.36684288E+05 F= -.37574465E+05 EK= 0.89018E+03 SP= 0.00E+00 SK= 0.00E+00
     3580 T=   976. E= -.36684307E+05 F= -.37574379E+05 EK= 0.89007E+03 SP= 0.00E+00 SK= 0.00E+00
     3590 T=   969. E= -.36684291E+05 F= -.37567564E+05 EK= 0.88327E+03 SP= 0.00E+00 SK= 0.00E+00
     3600 T=   960. E= -.36684281E+05 F= -.37559984E+05 EK= 0.87570E+03 SP= 0.00E+00 SK= 0.00E+00
     3610 T=   961. E= -.36684297E+05 F= -.37560278E+05 EK= 0.87598E+03 SP= 0.00E+00 SK= 0.00E+00
     3620 T=   966. E= -.36684296E+05 F= -.37564871E+05 EK= 0.88057E+03 SP= 0.00E+00 SK= 0.00E+00
     3630 T=   967. E= -.36684288E+05 F= -.37565682E+05 EK= 0.88139E+03 SP= 0.00E+00 SK= 0.00E+00
     3640 T=   966. E= -.36684291E+05 F= -.37564829E+05 EK= 0.88054E+03 SP= 0.00E+00 SK= 0.00E+00
     3650 T=   967. E= -.36684284E+05 F= -.37565955E+05 EK= 0.88167E+03 SP= 0.00E+00 SK= 0.00E+00
     3660 T=   971. E= -.36684289E+05 F= -.37569732E+05 EK= 0.88544E+03 SP= 0.00E+00 SK= 0.00E+00
     3670 T=   973. E= -.36684280E+05 F= -.37571393E+05 EK= 0.88711E+03 SP= 0.00E+00 SK= 0.00E+00
     3680 T=   972. E= -.36684268E+05 F= -.37570320E+05 EK= 0.88605E+03 SP= 0.00E+00 SK= 0.00E+00
     3690 T=   971. E= -.36684289E+05 F= -.37569847E+05 EK= 0.88556E+03 SP= 0.00E+00 SK= 0.00E+00
     3700 T=   970. E= -.36684298E+05 F= -.37569050E+05 EK= 0.88475E+03 SP= 0.00E+00 SK= 0.00E+00
     3710 T=   973. E= -.36684263E+05 F= -.37571541E+05 EK= 0.88728E+03 SP= 0.00E+00 SK= 0.00E+00
     3720 T=   976. E= -.36684254E+05 F= -.37574650E+05 EK= 0.89040E+03 SP= 0.00E+00 SK= 0.00E+00
     3730 T=   975. E= -.36684261E+05 F= -.37573265E+05 EK= 0.88900E+03 SP= 0.00E+00 SK= 0.00E+00
     3740 T=   975. E= -.36684244E+05 F= -.37573053E+05 EK= 0.88881E+03 SP= 0.00E+00 SK= 0.00E+00
     3750 T=   974. E= -.36684211E+05 F= -.37572263E+05 EK= 0.88805E+03 SP= 0.00E+00 SK= 0.00E+00
     3760 T=   970. E= -.36684193E+05 F= -.37568748E+05 EK= 0.88456E+03 SP= 0.00E+00 SK= 0.00E+00
     3770 T=   967. E= -.36684163E+05 F= -.37565733E+05 EK= 0.88157E+03 SP= 0.00E+00 SK= 0.00E+00
     3780 T=   963. E= -.36684134E+05 F= -.37562695E+05 EK= 0.87856E+03 SP= 0.00E+00 SK= 0.00E+00
     3790 T=   959. E= -.36684102E+05 F= -.37558690E+05 EK= 0.87459E+03 SP= 0.00E+00 SK= 0.00E+00
     3800 T=   956. E= -.36684098E+05 F= -.37555903E+05 EK= 0.87181E+03 SP= 0.00E+00 SK= 0.00E+00
     3810 T=   954. E= -.36684103E+05 F= -.37554284E+05 EK= 0.87018E+03 SP= 0.00E+00 SK= 0.00E+00
     3820 T=   958. E= -.36684099E+05 F= -.37557716E+05 EK= 0.87362E+03 SP= 0.00E+00 SK= 0.00E+00
     3830 T=   968. E= -.36684112E+05 F= -.37566906E+05 EK= 0.88279E+03 SP= 0.00E+00 SK= 0.00E+00
     3840 T=   978. E= -.36684112E+05 F= -.37575575E+05 EK= 0.89146E+03 SP= 0.00E+00 SK= 0.00E+00
     3850 T=   978. E= -.36684105E+05 F= -.37575561E+05 EK= 0.89146E+03 SP= 0.00E+00 SK= 0.00E+00
     3860 T=   971. E= -.36684116E+05 F= -.37569325E+05 EK= 0.88521E+03 SP= 0.00E+00 SK= 0.00E+00
     3870 T=   967. E= -.36684093E+05 F= -.37565855E+05 EK= 0.88176E+03 SP= 0.00E+00 SK= 0.00E+00
     3880 T=   967. E= -.36684123E+05 F= -.37566126E+05 EK= 0.88200E+03 SP= 0.00E+00 SK= 0.00E+00
     3890 T=   969. E= -.36684133E+05 F= -.37567693E+05 EK= 0.88356E+03 SP= 0.00E+00 SK= 0.00E+00
     3900 T=   973. E= -.36684135E+05 F= -.37571819E+05 EK= 0.88768E+03 SP= 0.00E+00 SK= 0.00E+00
     3910 T=   981. E= -.36684137E+05 F= -.37579044E+05 EK= 0.89491E+03 SP= 0.00E+00 SK= 0.00E+00
     3920 T=   979. E= -.36684147E+05 F= -.37576959E+05 EK= 0.89281E+03 SP= 0.00E+00 SK= 0.00E+00
     3930 T=   965. E= -.36684143E+05 F= -.37564267E+05 EK= 0.88012E+03 SP= 0.00E+00 SK= 0.00E+00
     3940 T=   961. E= -.36684177E+05 F= -.37560298E+05 EK= 0.87612E+03 SP= 0.00E+00 SK= 0.00E+00
     3950 T=   964. E= -.36684181E+05 F= -.37563402E+05 EK= 0.87922E+03 SP= 0.00E+00 SK= 0.00E+00
     3960 T=   968. E= -.36684145E+05 F= -.37566461E+05 EK= 0.88232E+03 SP= 0.00E+00 SK= 0.00E+00
     3970 T=   971. E= -.36684157E+05 F= -.37569633E+05 EK= 0.88548E+03 SP= 0.00E+00 SK= 0.00E+00
     3980 T=   976. E= -.36684177E+05 F= -.37574606E+05 EK= 0.89043E+03 SP= 0.00E+00 SK= 0.00E+00
     3990 T=   981. E= -.36684157E+05 F= -.37579033E+05 EK= 0.89488E+03 SP= 0.00E+00 SK= 0.00E+00
     4000 T=   980. E= -.36684175E+05 F= -.37577443E+05 EK= 0.89327E+03 SP= 0.00E+00 SK= 0.00E+00
     4010 T=   972. E= -.36684156E+05 F= -.37570461E+05 EK= 0.88630E+03 SP= 0.00E+00 SK= 0.00E+00
     4020 T=   971. E= -.36684140E+05 F= -.37569847E+05 EK= 0.88571E+03 SP= 0.00E+00 SK= 0.00E+00
     4030 T=   977. E= -.36684142E+05 F= -.37574905E+05 EK= 0.89076E+03 SP= 0.00E+00 SK= 0.00E+00
     4040 T=   973. E= -.36684152E+05 F= -.37571498E+05 EK= 0.88735E+03 SP= 0.00E+00 SK= 0.00E+00
     4050 T=   965. E= -.36684127E+05 F= -.37563744E+05 EK= 0.87962E+03 SP= 0.00E+00 SK= 0.00E+00
     4060 T=   965. E= -.36684092E+05 F= -.37564093E+05 EK= 0.88000E+03 SP= 0.00E+00 SK= 0.00E+00
     4070 T=   977. E= -.36684125E+05 F= -.37575421E+05 EK= 0.89130E+03 SP= 0.00E+00 SK= 0.00E+00
     4080 T=   980. E= -.36684140E+05 F= -.37577730E+05 EK= 0.89359E+03 SP= 0.00E+00 SK= 0.00E+00
     4090 T=   971. E= -.36684118E+05 F= -.37569318E+05 EK= 0.88520E+03 SP= 0.00E+00 SK= 0.00E+00
     4100 T=   970. E= -.36684126E+05 F= -.37568691E+05 EK= 0.88457E+03 SP= 0.00E+00 SK= 0.00E+00
     4110 T=   978. E= -.36684136E+05 F= -.37576427E+05 EK= 0.89229E+03 SP= 0.00E+00 SK= 0.00E+00
     4120 T=   984. E= -.36684134E+05 F= -.37581310E+05 EK= 0.89718E+03 SP= 0.00E+00 SK= 0.00E+00
     4130 T=   979. E= -.36684121E+05 F= -.37577055E+05 EK= 0.89293E+03 SP= 0.00E+00 SK= 0.00E+00
     4140 T=   971. E= -.36684105E+05 F= -.37569572E+05 EK= 0.88547E+03 SP= 0.00E+00 SK= 0.00E+00
     4150 T=   970. E= -.36684097E+05 F= -.37568643E+05 EK= 0.88455E+03 SP= 0.00E+00 SK= 0.00E+00
     4160 T=   970. E= -.36684115E+05 F= -.37568505E+05 EK= 0.88439E+03 SP= 0.00E+00 SK= 0.00E+00
     4170 T=   967. E= -.36684108E+05 F= -.37565773E+05 EK= 0.88167E+03 SP= 0.00E+00 SK= 0.00E+00
     4180 T=   964. E= -.36684091E+05 F= -.37563423E+05 EK= 0.87933E+03 SP= 0.00E+00 SK= 0.00E+00
     4190 T=   966. E= -.36684071E+05 F= -.37564584E+05 EK= 0.88051E+03 SP= 0.00E+00 SK= 0.00E+00
     4200 T=   969. E= -.36684072E+05 F= -.37567950E+05 EK= 0.88388E+03 SP= 0.00E+00 SK= 0.00E+00
     4210 T=   974. E= -.36684065E+05 F= -.37572125E+05 EK= 0.88806E+03 SP= 0.00E+00 SK= 0.00E+00
     4220 T=   981. E= -.36684056E+05 F= -.37578343E+05 EK= 0.89429E+03 SP= 0.00E+00 SK= 0.00E+00
     4230 T=   983. E= -.36684060E+05 F= -.37580864E+05 EK= 0.89680E+03 SP= 0.00E+00 SK= 0.00E+00
     4240 T=   979. E= -.36684054E+05 F= -.37576653E+05 EK= 0.89260E+03 SP= 0.00E+00 SK= 0.00E+00
     4250 T=   969. E= -.36684057E+05 F= -.37568111E+05 EK= 0.88405E+03 SP= 0.00E+00 SK= 0.00E+00
     4260 T=   962. E= -.36684021E+05 F= -.37561454E+05 EK= 0.87743E+03 SP= 0.00E+00 SK= 0.00E+00
     4270 T=   962. E= -.36684031E+05 F= -.37561618E+05 EK= 0.87759E+03 SP= 0.00E+00 SK= 0.00E+00
     4280 T=   966. E= -.36684006E+05 F= -.37565386E+05 EK= 0.88138E+03 SP= 0.00E+00 SK= 0.00E+00
     4290 T=   974. E= -.36684007E+05 F= -.37572136E+05 EK= 0.88813E+03 SP= 0.00E+00 SK= 0.00E+00
     4300 T=   977. E= -.36683995E+05 F= -.37575070E+05 EK= 0.89108E+03 SP= 0.00E+00 SK= 0.00E+00
     4310 T=   971. E= -.36684030E+05 F= -.37569071E+05 EK= 0.88504E+03 SP= 0.00E+00 SK= 0.00E+00
     4320 T=   962. E= -.36684046E+05 F= -.37561341E+05 EK= 0.87730E+03 SP= 0.00E+00 SK= 0.00E+00
     4330 T=   960. E= -.36684044E+05 F= -.37559189E+05 EK= 0.87514E+03 SP= 0.00E+00 SK= 0.00E+00
     4340 T=   964. E= -.36684065E+05 F= -.37563056E+05 EK= 0.87899E+03 SP= 0.00E+00 SK= 0.00E+00
     4350 T=   973. E= -.36684082E+05 F= -.37571243E+05 EK= 0.88716E+03 SP= 0.00E+00 SK= 0.00E+00
     4360 T=   980. E= -.36684096E+05 F= -.37577489E+05 EK= 0.89339E+03 SP= 0.00E+00 SK= 0.00E+00
     4370 T=   974. E= -.36684099E+05 F= -.37572520E+05 EK= 0.88842E+03 SP= 0.00E+00 SK= 0.00E+00
     4380 T=   959. E= -.36684075E+05 F= -.37559004E+05 EK= 0.87493E+03 SP= 0.00E+00 SK= 0.00E+00
     4390 T=   954. E= -.36684069E+05 F= -.37554407E+05 EK= 0.87034E+03 SP= 0.00E+00 SK= 0.00E+00
     4400 T=   968. E= -.36684078E+05 F= -.37566731E+05 EK= 0.88265E+03 SP= 0.00E+00 SK= 0.00E+00
     4410 T=   988. E= -.36684083E+05 F= -.37585096E+05 EK= 0.90101E+03 SP= 0.00E+00 SK= 0.00E+00
     4420 T=   999. E= -.36684104E+05 F= -.37594822E+05 EK= 0.91072E+03 SP= 0.00E+00 SK= 0.00E+00
     4430 T=   993. E= -.36684109E+05 F= -.37590046E+05 EK= 0.90594E+03 SP= 0.00E+00 SK= 0.00E+00
     4440 T=   978. E= -.36684103E+05 F= -.37576289E+05 EK= 0.89219E+03 SP= 0.00E+00 SK= 0.00E+00
     4450 T=   969. E= -.36684093E+05 F= -.37567783E+05 EK= 0.88369E+03 SP= 0.00E+00 SK= 0.00E+00
     4460 T=   969. E= -.36684095E+05 F= -.37567461E+05 EK= 0.88337E+03 SP= 0.00E+00 SK= 0.00E+00
     4470 T=   972. E= -.36684089E+05 F= -.37570860E+05 EK= 0.88677E+03 SP= 0.00E+00 SK= 0.00E+00
     4480 T=   977. E= -.36684084E+05 F= -.37574843E+05 EK= 0.89076E+03 SP= 0.00E+00 SK= 0.00E+00
     4490 T=   975. E= -.36684072E+05 F= -.37572803E+05 EK= 0.88873E+03 SP= 0.00E+00 SK= 0.00E+00
     4500 T=   966. E= -.36684070E+05 F= -.37565261E+05 EK= 0.88119E+03 SP= 0.00E+00 SK= 0.00E+00
     4510 T=   957. E= -.36684060E+05 F= -.37557022E+05 EK= 0.87296E+03 SP= 0.00E+00 SK= 0.00E+00
     4520 T=   953. E= -.36684056E+05 F= -.37553167E+05 EK= 0.86911E+03 SP= 0.00E+00 SK= 0.00E+00
     4530 T=   955. E= -.36684061E+05 F= -.37555114E+05 EK= 0.87105E+03 SP= 0.00E+00 SK= 0.00E+00
     4540 T=   959. E= -.36684068E+05 F= -.37558248E+05 EK= 0.87418E+03 SP= 0.00E+00 SK= 0.00E+00
     4550 T=   962. E= -.36684061E+05 F= -.37561708E+05 EK= 0.87765E+03 SP= 0.00E+00 SK= 0.00E+00
     4560 T=   966. E= -.36684070E+05 F= -.37564682E+05 EK= 0.88061E+03 SP= 0.00E+00 SK= 0.00E+00
     4570 T=   971. E= -.36684065E+05 F= -.37569864E+05 EK= 0.88580E+03 SP= 0.00E+00 SK= 0.00E+00
     4580 T=   977. E= -.36684073E+05 F= -.37575241E+05 EK= 0.89117E+03 SP= 0.00E+00 SK= 0.00E+00
     4590 T=   979. E= -.36684084E+05 F= -.37576697E+05 EK= 0.89261E+03 SP= 0.00E+00 SK= 0.00E+00
     4600 T=   978. E= -.36684074E+05 F= -.37575498E+05 EK= 0.89142E+03 SP= 0.00E+00 SK= 0.00E+00
     4610 T=   976. E= -.36684084E+05 F= -.37574191E+05 EK= 0.89011E+03 SP= 0.00E+00 SK= 0.00E+00
     4620 T=   968. E= -.36684062E+05 F= -.37567250E+05 EK= 0.88319E+03 SP= 0.00E+00 SK= 0.00E+00
     4630 T=   967. E= -.36684080E+05 F= -.37565865E+05 EK= 0.88178E+03 SP= 0.00E+00 SK= 0.00E+00
     4640 T=   977. E= -.36684094E+05 F= -.37574800E+05 EK= 0.89071E+03 SP= 0.00E+00 SK= 0.00E+00
     4650 T=   984. E= -.36684125E+05 F= -.37581848E+05 EK= 0.89772E+03 SP= 0.00E+00 SK= 0.00E+00
     4660 T=   982. E= -.36684116E+05 F= -.37579715E+05 EK= 0.89560E+03 SP= 0.00E+00 SK= 0.00E+00
     4670 T=   976. E= -.36684124E+05 F= -.37574164E+05 EK= 0.89004E+03 SP= 0.00E+00 SK= 0.00E+00
     4680 T=   973. E= -.36684114E+05 F= -.37571111E+05 EK= 0.88700E+03 SP= 0.00E+00 SK= 0.00E+00
     4690 T=   969. E= -.36684121E+05 F= -.37568022E+05 EK= 0.88390E+03 SP= 0.00E+00 SK= 0.00E+00
     4700 T=   966. E= -.36684127E+05 F= -.37564946E+05 EK= 0.88082E+03 SP= 0.00E+00 SK= 0.00E+00
     4710 T=   964. E= -.36684131E+05 F= -.37563166E+05 EK= 0.87903E+03 SP= 0.00E+00 SK= 0.00E+00
     4720 T=   964. E= -.36684111E+05 F= -.37562987E+05 EK= 0.87888E+03 SP= 0.00E+00 SK= 0.00E+00
     4730 T=   967. E= -.36684112E+05 F= -.37566079E+05 EK= 0.88197E+03 SP= 0.00E+00 SK= 0.00E+00
     4740 T=   974. E= -.36684129E+05 F= -.37572685E+05 EK= 0.88856E+03 SP= 0.00E+00 SK= 0.00E+00
     4750 T=   978. E= -.36684105E+05 F= -.37576071E+05 EK= 0.89197E+03 SP= 0.00E+00 SK= 0.00E+00
     4760 T=   975. E= -.36684092E+05 F= -.37572835E+05 EK= 0.88874E+03 SP= 0.00E+00 SK= 0.00E+00
     4770 T=   969. E= -.36684096E+05 F= -.37567826E+05 EK= 0.88373E+03 SP= 0.00E+00 SK= 0.00E+00
     4780 T=   966. E= -.36684072E+05 F= -.37565238E+05 EK= 0.88117E+03 SP= 0.00E+00 SK= 0.00E+00
     4790 T=   971. E= -.36684083E+05 F= -.37569532E+05 EK= 0.88545E+03 SP= 0.00E+00 SK= 0.00E+00
     4800 T=   978. E= -.36684087E+05 F= -.37576409E+05 EK= 0.89232E+03 SP= 0.00E+00 SK= 0.00E+00
     4810 T=   982. E= -.36684089E+05 F= -.37579155E+05 EK= 0.89507E+03 SP= 0.00E+00 SK= 0.00E+00
     4820 T=   980. E= -.36684082E+05 F= -.37577443E+05 EK= 0.89336E+03 SP= 0.00E+00 SK= 0.00E+00
     4830 T=   977. E= -.36684065E+05 F= -.37574862E+05 EK= 0.89080E+03 SP= 0.00E+00 SK= 0.00E+00
     4840 T=   974. E= -.36684082E+05 F= -.37572196E+05 EK= 0.88811E+03 SP= 0.00E+00 SK= 0.00E+00
     4850 T=   976. E= -.36684088E+05 F= -.37574290E+05 EK= 0.89020E+03 SP= 0.00E+00 SK= 0.00E+00
     4860 T=   983. E= -.36684095E+05 F= -.37580411E+05 EK= 0.89632E+03 SP= 0.00E+00 SK= 0.00E+00
     4870 T=   985. E= -.36684085E+05 F= -.37581992E+05 EK= 0.89791E+03 SP= 0.00E+00 SK= 0.00E+00
     4880 T=   981. E= -.36684073E+05 F= -.37579116E+05 EK= 0.89504E+03 SP= 0.00E+00 SK= 0.00E+00
     4890 T=   975. E= -.36684070E+05 F= -.37573637E+05 EK= 0.88957E+03 SP= 0.00E+00 SK= 0.00E+00
     4900 T=   974. E= -.36684074E+05 F= -.37572548E+05 EK= 0.88847E+03 SP= 0.00E+00 SK= 0.00E+00
     4910 T=   978. E= -.36684094E+05 F= -.37575909E+05 EK= 0.89181E+03 SP= 0.00E+00 SK= 0.00E+00
     4920 T=   982. E= -.36684092E+05 F= -.37579729E+05 EK= 0.89564E+03 SP= 0.00E+00 SK= 0.00E+00
     4930 T=   983. E= -.36684084E+05 F= -.37580456E+05 EK= 0.89637E+03 SP= 0.00E+00 SK= 0.00E+00
     4940 T=   979. E= -.36684077E+05 F= -.37576458E+05 EK= 0.89238E+03 SP= 0.00E+00 SK= 0.00E+00
     4950 T=   975. E= -.36684072E+05 F= -.37573452E+05 EK= 0.88938E+03 SP= 0.00E+00 SK= 0.00E+00
     4960 T=   978. E= -.36684061E+05 F= -.37575791E+05 EK= 0.89173E+03 SP= 0.00E+00 SK= 0.00E+00
     4970 T=   983. E= -.36684051E+05 F= -.37580092E+05 EK= 0.89604E+03 SP= 0.00E+00 SK= 0.00E+00
     4980 T=   984. E= -.36684046E+05 F= -.37581212E+05 EK= 0.89717E+03 SP= 0.00E+00 SK= 0.00E+00
     4990 T=   979. E= -.36684058E+05 F= -.37576915E+05 EK= 0.89286E+03 SP= 0.00E+00 SK= 0.00E+00
At line 1940 of file md.f90
Fortran runtime error: Unit number is negative and unit was not already opened with OPEN(NEWUNIT=...)

Error termination. Backtrace:
At line 1940 of file md.f90
Fortran runtime error: Unit number is negative and unit was not already opened with OPEN(NEWUNIT=...)

Error termination. Backtrace:
At line 1940 of file md.f90
Fortran runtime error: Unit number is negative and unit was not already opened with OPEN(NEWUNIT=...)

Error termination. Backtrace:
At line 1940 of file md.f90
Fortran runtime error: Unit number is negative and unit was not already opened with OPEN(NEWUNIT=...)

Error termination. Backtrace:
At line 1940 of file md.f90
Fortran runtime error: Unit number is negative and unit was not already opened with OPEN(NEWUNIT=...)

Error termination. Backtrace:
     5000 T=   974. E= -.36684042E+05 F= -.37572491E+05 EK= 0.88845E+03 SP= 0.00E+00 SK= 0.00E+00
Rc and Rl:   5.500000  7.321000

Average number of steps between two list updates:  38.76
Average number of atoms in the shell:     0.01
#0  0x7fea24f9fd11 in ???
#1  0x7fea24fa0859 in ???
#2  0x7fea24fa153f in ???
#3  0x55da6f9640bc in ???
#4  0x55da6f95f92e in ???
#5  0x7fea24c36082 in __libc_start_main
	at ../csu/libc-start.c:308
#6  0x55da6f95f96d in ???
#7  0xffffffffffffffff in ???
#0  0x7fe7133e3d11 in ???
#1  0x7fe7133e4859 in ???
#2  0x7fe7133e553f in ???
#3  0x55b6ee62d0bc in ???
#4  0x55b6ee62892e in ???
#5  0x7fe71307a082 in __libc_start_main
	at ../csu/libc-start.c:308
#6  0x55b6ee62896d in ???
#7  0xffffffffffffffff in ???
#0  0x7f43c0e64d11 in ???
#1  0x7f43c0e65859 in ???
#2  0x7f43c0e6653f in ???
#3  0x55dda2f010bc in ???
#4  0x55dda2efc92e in ???
#5  0x7f43c0afb082 in __libc_start_main
	at ../csu/libc-start.c:308
#6  0x55dda2efc96d in ???
#7  0xffffffffffffffff in ???
