Direct configuration=     5
   0.05387933  0.92909670  0.71260707
   0.58688723  0.03504256  0.24049415
   0.12385002  0.45643953  0.31133256
   0.73538342  0.57942121  0.73556623
Direct configuration=    10
   0.05479585  0.94564226  0.65998142
   0.59244179  0.01374575  0.30597240
   0.13728252  0.45511623  0.29465177
   0.71547984  0.58549576  0.73939441
Direct configuration=    15
   0.04789947  0.96851164  0.63861226
   0.59606279  0.00880750  0.35648089
   0.15341975  0.44971944  0.24853684
   0.70261798  0.57296142  0.75637001
Direct configuration=    20
   0.03430393  0.98577071  0.63808418
   0.59619144  0.02271193  0.38246621
   0.17078802  0.45033779  0.18589856
   0.69871660  0.54117957  0.79355105
Direct configuration=    25
   0.01769470  0.99658364  0.64395123
   0.59462910  0.04032859  0.38874269
   0.18625017  0.45635192  0.12335259
   0.70142602  0.50673585  0.84395348
Direct configuration=    30
   0.00051773  0.00271480  0.64692064
   0.59303490  0.04883025  0.38614608
   0.19835386  0.46449993  0.07177715
   0.70809351  0.48395502  0.89515614
Direct configuration=    35
   0.98356359  0.00475126  0.64458452
   0.59162751  0.04521457  0.38641133
   0.20751475  0.47331705  0.03336193
   0.71729415  0.47671712  0.93564222
Direct configuration=    40
   0.96740313  0.00343076  0.63779607
   0.59011911  0.03150407  0.39539399
   0.21444059  0.48200763  0.00549295
   0.72803718  0.48305754  0.96131698
Direct configuration=    45
   0.95312788  0.00024258  0.62748407
   0.58864506  0.01359483  0.41119945
   0.21950670  0.48980116  0.98513354
   0.73872036  0.49636143  0.97618295
Direct configuration=    50
   0.94212889  0.99717483  0.61399991
   0.58710284  0.99753289  0.42968666
   0.22295364  0.49611861  0.97011325
   0.74781463  0.50917367  0.98620019
Direct configuration=    55
   0.93542705  0.99600320  0.59753420
   0.58475540  0.98631777  0.44811595
   0.22505538  0.50078650  0.95897958
   0.75476217  0.51689254  0.99537027
Direct configuration=    60
   0.93301167  0.99737184  0.57872823
   0.58101878  0.98022694  0.46528402
   0.22607988  0.50400772  0.95072089
   0.75988967  0.51839350  0.00526686
Direct configuration=    65
   0.93372372  0.00064925  0.55894578
   0.57618196  0.97819382  0.48087680
   0.22622182  0.50615962  0.94465421
   0.76387251  0.51499730  0.01552321
Direct configuration=    70
   0.93592992  0.00466004  0.53994506
   0.57122701  0.97880179  0.49491745
   0.22557073  0.50761241  0.94032690
   0.76727234  0.50892576  0.02481059
Direct configuration=    75
   0.93835115  0.00833107  0.52337842
   0.56716669  0.98080458  0.50745028
   0.22412786  0.50863629  0.93739872
   0.77035431  0.50222806  0.03177258
Direct configuration=    80
   0.94038308  0.01086499  0.51040875
   0.56461856  0.98331516  0.51850461
   0.22184984  0.50940039  0.93558574
   0.77314851  0.49641947  0.03550090
Direct configuration=    85
   0.94194000  0.01174217  0.50161189
   0.56376249  0.98580454  0.52807728
   0.21869339  0.51000638  0.93465328
   0.77560412  0.49244691  0.03565754
Direct configuration=    90
   0.94316894  0.01078400  0.49691163
   0.56446871  0.98801919  0.53616331
   0.21463719  0.51051099  0.93442568
   0.77772516  0.49068582  0.03249938
Direct configuration=    95
   0.94425538  0.00821031  0.49565297
   0.56642804  0.98988705  0.54274844
   0.20968707  0.51093249  0.93477924
   0.77962950  0.49097014  0.02681935
Direct configuration=   100
   0.94537007  0.00457304  0.49678266
   0.56923569  0.99144490  0.54778786
   0.20388064  0.51125259  0.93564211
   0.78151360  0.49272947  0.01978737
Direct configuration=   105
   0.94669195  0.00059062  0.49908077
   0.57245157  0.99278820  0.55122322
   0.19729749  0.51141725  0.93699162
   0.78355899  0.49520393  0.01270439
Direct configuration=   110
   0.94842891  0.99697907  0.50138250
   0.57566975  0.99403353  0.55302771
   0.19005938  0.51134216  0.93885739
   0.78584197  0.49764523  0.00673239
Direct configuration=   115
   0.95078061  0.99432803  0.50274402
   0.57858552  0.99528264  0.55324519
   0.18236180  0.51092957  0.94132930
   0.78827207  0.49945976  0.00268149
Direct configuration=   120
   0.95386009  0.99301266  0.50255270
   0.58104434  0.99659093  0.55200155
   0.17453409  0.51008854  0.94454686
   0.79056148  0.50030787  0.00089888
Direct configuration=   125
   0.95763762  0.99313601  0.50058641
   0.58306292  0.99795121  0.54948558
   0.16705327  0.50876381  0.94866632
   0.79224619  0.50014897  0.00126169
Direct configuration=   130
   0.96193080  0.99451829  0.49702163
   0.58479037  0.99930201  0.54590815
   0.16052495  0.50696668  0.95379579
   0.79275389  0.49921302  0.00327442
Direct configuration=   135
   0.96645956  0.99675035  0.49238302
   0.58644799  0.00055468  0.54145993
   0.15551576  0.50479569  0.95991751
   0.79157669  0.49789929  0.00623955
Direct configuration=   140
   0.97090530  0.99929733  0.48743710
   0.58827458  0.00161499  0.53629554
   0.15231368  0.50243754  0.96683416
   0.78850645  0.49665014  0.00943320
Direct configuration=   145
   0.97494197  0.00162954  0.48304590
   0.59048513  0.00239293  0.53055049
   0.15078587  0.50013343  0.97416878
   0.78378702  0.49584409  0.01223483
Direct configuration=   150
   0.97826866  0.00332690  0.48001092
   0.59323369  0.00280544  0.52438752
   0.15043535  0.49813222  0.98141372
   0.77806229  0.49573543  0.01418783
Direct configuration=   155
   0.98065180  0.00413538  0.47893487
   0.59656322  0.00279002  0.51804428
   0.15061391  0.49664390  0.98803463
   0.77217107  0.49643070  0.01498623
Direct configuration=   160
   0.98197928  0.00397886  0.48013273
   0.60035916  0.00233521  0.51184254
   0.15073755  0.49580037  0.99360601
   0.76692401  0.49788556  0.01441872
Direct configuration=   165
   0.98231060  0.00294555  0.48360532
   0.60432273  0.00152544  0.50613766
   0.15039272  0.49562673  0.99791602
   0.76297395  0.49990228  0.01234100
Direct configuration=   170
   0.98188904  0.00125365  0.48907104
   0.60798910  0.00056809  0.50121364
   0.14935056  0.49603618  0.00099643
   0.76077131  0.50214208  0.00871889
Direct configuration=   175
   0.98110492  0.99920426  0.49602887
   0.61080548  0.99976491  0.49716534
   0.14756677  0.49685269  0.00309139
   0.76052283  0.50417814  0.00371441
Direct configuration=   180
   0.98039604  0.99713580  0.50381345
   0.61225780  0.99942028  0.49383040
   0.14519783  0.49784839  0.00460581
   0.76214833  0.50559552  0.99775034
Direct configuration=   185
   0.98009839  0.99539159  0.51161474
   0.61202495  0.99972926  0.49083310
   0.14262398  0.49877785  0.00605958
   0.76525268  0.50610130  0.99149259
Direct configuration=   190
   0.98031607  0.99428787  0.51849199
   0.61009497  0.00070969  0.48774075
   0.14044480  0.49941141  0.00803611
   0.76914416  0.50559103  0.98573116
Direct configuration=   195
   0.98088819  0.99406327  0.52347655
   0.60676767  0.00221258  0.48423672
   0.13939350  0.49957607  0.01108803
   0.77295064  0.50414808  0.98119870
Direct configuration=   200
   0.98146821  0.99479513  0.52580276
   0.60254471  0.00399195  0.48020799
   0.14012987  0.49921081  0.01557971
   0.77585721  0.50200210  0.97840954
Direct configuration=   205
   0.98164140  0.99633456  0.52516517
   0.59798559  0.00577936  0.47573291
   0.14296837  0.49840071  0.02151438
   0.77740464  0.49948537  0.97758754
Direct configuration=   210
   0.98100459  0.99832553  0.52184145
   0.59359348  0.00732424  0.47102595
   0.14772385  0.49735185  0.02845959
   0.77767809  0.49699837  0.97867301
Direct configuration=   215
   0.97920065  0.00031116  0.51658499
   0.58974997  0.00839947  0.46638982
   0.15381293  0.49631438  0.03566503
   0.77723645  0.49497499  0.98136016
Direct configuration=   220
   0.97593528  0.00185258  0.51035135
   0.58669384  0.00880025  0.46218415
   0.16052773  0.49550839  0.04232533
   0.77684315  0.49383878  0.98513918
Direct configuration=   225
   0.97101537  0.00261166  0.50401824
   0.58451490  0.00836143  0.45879101
   0.16727467  0.49507765  0.04783585
   0.77719506  0.49394925  0.98935491
Direct configuration=   230
   0.96443698  0.00240224  0.49823519
   0.58314234  0.00699816  0.45656627
   0.17365204  0.49507300  0.05192566
   0.77876864  0.49552660  0.99327288
Direct configuration=   235
   0.95649075  0.00123641  0.49344907
   0.58229805  0.00475257  0.45578466
   0.17945160  0.49546086  0.05463429
   0.78175960  0.49855016  0.99613198
Direct configuration=   240
   0.94788318  0.99939240  0.49002383
   0.58141509  0.00180544  0.45659489
   0.18462991  0.49615173  0.05618355
   0.78607182  0.50265043  0.99719773
Direct configuration=   245
   0.93978492  0.99749599  0.48829955
   0.57961486  0.99841933  0.45900330
   0.18923779  0.49704312  0.05682404
   0.79136243  0.50704156  0.99587311
Direct configuration=   250
   0.93359612  0.99652873  0.48843769
   0.57590419  0.99482085  0.46289622
   0.19336092  0.49806610  0.05672957
   0.79713877  0.51058432  0.99193652
Direct configuration=   255
   0.93045386  0.99760163  0.49007244
   0.56963663  0.99109107  0.46811364
   0.19704236  0.49921598  0.05595085
   0.80286715  0.51209132  0.98586307
Direct configuration=   260
   0.93078079  0.00144816  0.49206119
   0.56093919  0.98714227  0.47455634
   0.20018501  0.50055528  0.05440434
   0.80809501  0.51085429  0.97897812
Direct configuration=   265
   0.93437935  0.00786432  0.49272747
   0.55064100  0.98278607  0.48226447
   0.20247130  0.50219806  0.05187253
   0.81250835  0.50715155  0.97313553
Direct configuration=   270
   0.94095833  0.01550176  0.49057442
   0.53972401  0.97780476  0.49142785
   0.20336943  0.50430642  0.04800291
   0.81594824  0.50238706  0.96999482
Direct configuration=   275
   0.95055003  0.02230878  0.48501734
   0.52881304  0.97195763  0.50238227
   0.20220838  0.50711841  0.04227589
   0.81842855  0.49861518  0.97032451
Direct configuration=   280
   0.96361528  0.02643244  0.47677863
   0.51791021  0.96495247  0.51562646
   0.19832535  0.51097932  0.03391507
   0.82014915  0.49763577  0.97367984
Direct configuration=   285
   0.98086317  0.02694227  0.46775484
   0.50637983  0.95643578  0.53180839
   0.19134474  0.51632426  0.02175665
   0.82141226  0.50029769  0.97868012
Direct configuration=   290
   0.00293690  0.02406579  0.46032274
   0.49306204  0.94604015  0.55163992
   0.18170709  0.52347425  0.00419575
   0.82229396  0.50641981  0.98384159
Direct configuration=   295
   0.02991637  0.01929058  0.45639035
   0.47659191  0.93354388  0.57559664
   0.17140487  0.53199193  0.97958747
   0.82208685  0.51517362  0.98842554
Direct configuration=   300
   0.06089626  0.01551096  0.45585769
   0.45604884  0.91927777  0.60330558
   0.16385053  0.53955580  0.94816058
   0.81920437  0.52565547  0.99267616
Direct configuration=   305
   0.09356442  0.01660745  0.45384952
   0.43254788  0.90488817  0.63306484
   0.16146318  0.54111406  0.91583909
   0.81242452  0.53739031  0.99724655
Direct configuration=   310
   0.12250043  0.02545972  0.43972988
   0.41336704  0.89366835  0.66341539
   0.16199908  0.53044691  0.89447890
   0.80213344  0.55042502  0.00237584
Direct configuration=   315
   0.13988679  0.03970319  0.40358494
   0.41138243  0.88838347  0.69774304
   0.15903728  0.50697309  0.89091706
   0.78969350  0.56494026  0.00775496
Direct configuration=   320
   0.14638964  0.04772381  0.35278586
   0.42723767  0.88939667  0.73949037
   0.14990274  0.48210485  0.89475289
   0.77646996  0.58077467  0.01297087
Direct configuration=   325
   0.14959406  0.03384291  0.31454497
   0.44872002  0.89586783  0.78445606
   0.13783133  0.47335176  0.88306654
   0.76385459  0.59693750  0.01793243
Direct configuration=   330
   0.15377961  0.99785458  0.30317640
   0.46575796  0.90797140  0.82662404
   0.12577928  0.48383432  0.84648466
   0.75468314  0.61033970  0.02371490
Direct configuration=   335
   0.15948935  0.96015510  0.30799383
   0.47203641  0.92812220  0.86098576
   0.11529882  0.49592157  0.79858824
   0.75317542  0.61580113  0.03243217
Direct configuration=   340
   0.16642051  0.93755425  0.31223262
   0.46678428  0.95650207  0.88610221
   0.10651261  0.49445920  0.75761277
   0.76028259  0.61148448  0.04405240
Direct configuration=   345
   0.17420896  0.93534867  0.30447224
   0.45545779  0.98842890  0.90330079
   0.09832653  0.47467697  0.73623352
   0.77200672  0.60154546  0.05599345
Direct configuration=   350
   0.17998723  0.94479545  0.28859026
   0.44519288  0.01955417  0.91194434
   0.09096481  0.44468110  0.73286847
   0.78385507  0.59096929  0.06659693
Direct configuration=   355
   0.17956333  0.95125120  0.27545597
   0.44136799  0.04892586  0.90951027
   0.08591129  0.41720546  0.73888719
   0.79315739  0.58261747  0.07614657
Direct configuration=   360
   0.17261228  0.94604423  0.26950037
   0.44473527  0.07694461  0.89719966
   0.08391456  0.39917624  0.74736133
   0.79873789  0.57783493  0.08593864
Direct configuration=   365
   0.16304367  0.92840811  0.26808101
   0.45178442  0.10301557  0.88094040
   0.08478280  0.39153250  0.75395396
   0.80038912  0.57704382  0.09702463
Direct configuration=   370
   0.15439308  0.90319460  0.26775150
   0.45901108  0.12604535  0.86582197
   0.08782710  0.39093519  0.75689012
   0.79876874  0.57982485  0.10953640
Direct configuration=   375
   0.14807400  0.87794933  0.26669641
   0.46474761  0.14552849  0.85381458
   0.09196911  0.39138497  0.75664193
   0.79520928  0.58513721  0.12284708
Direct configuration=   380
   0.14440320  0.85957293  0.26411469
   0.46847848  0.16157683  0.84498149
   0.09591553  0.38701476  0.75483806
   0.79120279  0.59183548  0.13606576
Direct configuration=   385
   0.14333975  0.85111793  0.25990328
   0.47014431  0.17456360  0.83879425
   0.09861148  0.37524353  0.75283048
   0.78790446  0.59907494  0.14847200
Direct configuration=   390
   0.14466334  0.85042089  0.25469846
   0.46989994  0.18495754  0.83468517
   0.09946693  0.35819362  0.75089240
   0.78596979  0.60642795  0.15972397
Direct configuration=   395
   0.14812935  0.85188350  0.24948060
   0.46802954  0.19329644  0.83217346
   0.09819014  0.34106289  0.74857390
   0.78565097  0.61375717  0.16977205
Direct configuration=   400
   0.15359978  0.85002038  0.24502423
   0.46486796  0.20015658  0.83085103
   0.09460689  0.32874682  0.74539368
   0.78692537  0.62107622  0.17873105
Direct configuration=   405
   0.16097079  0.84234350  0.24162286
   0.46072428  0.20615055  0.83034701
   0.08870900  0.32303401  0.74122862
   0.78959592  0.62847195  0.18680150
Direct configuration=   410
   0.16998659  0.82996841  0.23911365
   0.45583671  0.21191629  0.83030552
   0.08080110  0.32202443  0.73637083
   0.79337560  0.63609087  0.19420999
Direct configuration=   415
   0.18013103  0.81593780  0.23719538
   0.45037465  0.21805346  0.83036474
   0.07153403  0.32187871  0.73127538
   0.79796029  0.64413002  0.20116450
Direct configuration=   420
   0.19071170  0.80290779  0.23574636
   0.44443444  0.22504276  0.83012236
   0.06175049  0.31919445  0.72631719
   0.80310337  0.65285500  0.20781409
Direct configuration=   425
   0.20093589  0.79200148  0.23491713
   0.43803261  0.23316039  0.82908926
   0.05235810  0.31224836  0.72178439
   0.80867339  0.66258977  0.21420922
Direct configuration=   430
   0.21001743  0.78301756  0.23506437
   0.43116454  0.24243341  0.82666048
   0.04416278  0.30086663  0.71801055
   0.81465524  0.67368240  0.22026460
Direct configuration=   435
   0.21731442  0.77524587  0.23662257
   0.42389142  0.25259032  0.82216910
   0.03767716  0.28575701  0.71545338
   0.82111700  0.68640680  0.22575496
Direct configuration=   440
   0.22249898  0.76816896  0.23994802
   0.41637090  0.26302757  0.81505360
   0.03294835  0.26799930  0.71460505
   0.82818177  0.70080417  0.23039334
Direct configuration=   445
   0.22560941  0.76168913  0.24512468
   0.40888675  0.27286466  0.80507597
   0.02956776  0.24896929  0.71582173
   0.83593608  0.71647691  0.23397762
Direct configuration=   450
   0.22706062  0.75597226  0.25179832
   0.40181320  0.28114513  0.79250538
   0.02690448  0.23041220  0.71924963
   0.84422170  0.73247040  0.23644667
Direct configuration=   455
   0.22756348  0.75121800  0.25911591
   0.39557274  0.28709102  0.77816951
   0.02441797  0.21446953  0.72491125
   0.85244581  0.74722145  0.23780333
Direct configuration=   460
   0.22794667  0.74759676  0.26580724
   0.39060098  0.29018087  0.76337957
   0.02191067  0.20340063  0.73269663
   0.85954168  0.75882175  0.23811656
Direct configuration=   465
   0.22886467  0.74536382  0.27040772
   0.38727787  0.29005943  0.74976846
   0.01954419  0.19906075  0.74205393
   0.86431326  0.76551600  0.23776988
Direct configuration=   470
   0.23050999  0.74492364  0.27164980
   0.38587473  0.28647416  0.73887992
   0.01762995  0.20239362  0.75177452
   0.86598533  0.76620858  0.23769577
Direct configuration=   475
   0.23257367  0.74659916  0.26887119
   0.38645131  0.27943224  0.73169649
   0.01637260  0.21300689  0.76040376
   0.86460242  0.76096171  0.23902856
Direct configuration=   480
   0.23448553  0.75022455  0.26223945
   0.38875271  0.26948913  0.72837205
   0.01578234  0.22905937  0.76693951
   0.86097942  0.75122694  0.24244900
Direct configuration=   485
   0.23568314  0.75501074  0.25267333
   0.39224311  0.25783699  0.72830729
   0.01585488  0.24762612  0.77098600
   0.85621887  0.73952615  0.24803338
Direct configuration=   490
   0.23571831  0.75985424  0.24157148
   0.39628901  0.24596386  0.73044732
   0.01679507  0.26554559  0.77244458
   0.85119761  0.72863631  0.25553663
Direct configuration=   495
   0.23427246  0.76379557  0.23058418
   0.40035536  0.23519122  0.73352767
   0.01898711  0.28027097  0.77137949
   0.84638507  0.72074224  0.26450867
Direct configuration=   500
   0.23117697  0.76629433  0.22140115
   0.40412465  0.22647540  0.73630094
   0.02274221  0.29021725  0.76810100
   0.84195616  0.71701301  0.27419691
Direct configuration=   505
   0.22645935  0.76728981  0.21542144
   0.40752558  0.22031121  0.73783615
   0.02806082  0.29470646  0.76308284
   0.83795425  0.71769252  0.28365957
Direct configuration=   510
   0.22040468  0.76714773  0.21348188
   0.41068417  0.21671959  0.73772823
   0.03453186  0.29369961  0.75667202
   0.83437929  0.72243306  0.29211787
Direct configuration=   515
   0.21355904  0.76641425  0.21576422
   0.41384881  0.21537205  0.73607019
   0.04140346  0.28763118  0.74897857
   0.83118869  0.73058252  0.29918701
Direct configuration=   520
   0.20662248  0.76541324  0.22175443
   0.41733649  0.21582084  0.73324586
   0.04778604  0.27738653  0.74018587
   0.82825498  0.74137939  0.30481384
Direct configuration=   525
   0.20033908  0.76388653  0.23016476
   0.42145570  0.21770532  0.72969749
   0.05287419  0.26434549  0.73106886
   0.82533103  0.75406265  0.30906889
Direct configuration=   530
   0.19541974  0.76088473  0.23893132
   0.42636082  0.22081197  0.72578485
   0.05613917  0.25041868  0.72331876
   0.82208026  0.76788462  0.31196506
Direct configuration=   535
   0.19243100  0.75505118  0.24561050
   0.43192971  0.22503834  0.72173478
   0.05741847  0.23782611  0.71929587
   0.81822083  0.78208437  0.31335884
Direct configuration=   540
   0.19163054  0.74528561  0.24827791
   0.43773237  0.23029517  0.71764792
   0.05693533  0.22845790  0.72113091
   0.81370175  0.79596132  0.31294326
Direct configuration=   545
   0.19282085  0.73155280  0.24646891
   0.44312896  0.23642111  0.71354571
   0.05524783  0.22303488  0.72961981
   0.80880236  0.80899121  0.31036556
Direct configuration=   550
   0.19546182  0.71517005  0.24141425
   0.44744318  0.24315096  0.70941646
   0.05302765  0.22079219  0.74374653
   0.80406735  0.82088680  0.30542276
Direct configuration=   555
   0.19902958  0.69830466  0.23547808
   0.45009158  0.25011486  0.70520484
   0.05075107  0.21995346  0.76112602
   0.80012777  0.83162702  0.29819106
Direct configuration=   560
   0.20328915  0.68343548  0.23142684
   0.45062935  0.25685423  0.70076944
   0.04855274  0.21838135  0.77878548
   0.79752876  0.84132893  0.28901824
Direct configuration=   565
   0.20824265  0.67296466  0.23176745
   0.44874404  0.26278918  0.69592158
   0.04639343  0.21417557  0.79387392
   0.79661988  0.85007058  0.27843706
Direct configuration=   570
   0.21377698  0.66865862  0.23791987
   0.44423305  0.26710359  0.69059477
   0.04449029  0.20647203  0.80439797
   0.79749967  0.85776575  0.26708738
Direct configuration=   575
   0.21930500  0.67136091  0.24961736
   0.43701780  0.26855981  0.68519626
   0.04368313  0.19601538  0.80942449
   0.79999407  0.86406390  0.25576189
Direct configuration=   580
   0.22377358  0.68132917  0.26502862
   0.42724644  0.26542358  0.68098281
   0.04527983  0.18484103  0.80860103
   0.80370015  0.86840622  0.24538754
Direct configuration=   585
   0.22609371  0.69848645  0.28134731
   0.41549658  0.25587688  0.68004949
   0.05024061  0.17531882  0.80178631
   0.80816909  0.87031785  0.23681689
Direct configuration=   590
   0.22571970  0.72120763  0.29527368
   0.40333109  0.23943280  0.68461641
   0.05782630  0.16960039  0.78964603
   0.81312290  0.86975918  0.23046388
Direct configuration=   595
   0.22294649  0.74422055  0.30283945
   0.39439710  0.21872788  0.69638398
   0.06417640  0.16994523  0.77465364
   0.81848001  0.86710633  0.22612293
Direct configuration=   600
   0.21857585  0.75936808  0.29922437
   0.39402106  0.19844217  0.71692652
   0.06322705  0.17953923  0.76050672
   0.82417603  0.86265053  0.22334239
Direct configuration=   605
   0.21346894  0.76175330  0.28220258
   0.40395769  0.18046822  0.74712296
   0.05255761  0.20183416  0.74875181
   0.83001576  0.85594432  0.22192264
Direct configuration=   610
   0.20810095  0.75346497  0.25568359
   0.42005781  0.16338545  0.78475278
   0.03614321  0.23754134  0.73756005
   0.83569803  0.84560825  0.22200358
Direct configuration=   615
   0.20234204  0.73945005  0.22606140
   0.43813966  0.14673143  0.82542953
   0.01860513  0.28340525  0.72499530
   0.84091316  0.83041327  0.22351378
Direct configuration=   620
   0.19643639  0.72374642  0.19708327
   0.45698102  0.13172392  0.86630994
   0.00152733  0.33277850  0.71087673
   0.84505526  0.81175115  0.22573005
Direct configuration=   625
   0.19176278  0.70934412  0.16977282
   0.47686907  0.11934024  0.90713807
   0.98500693  0.37575698  0.69610555
   0.84636121  0.79555866  0.22698357
Direct configuration=   630
   0.18976447  0.69782816  0.14487234
   0.49800345  0.10979032  0.94849182
   0.97005093  0.40122549  0.68332217
   0.84218116  0.79115603  0.22331367
Direct configuration=   635
   0.19040357  0.68933180  0.12327642
   0.51950119  0.10325778  0.99020801
   0.95803410  0.40297924  0.67561764
   0.83206113  0.80443118  0.21089793
Direct configuration=   640
   0.19227890  0.68326642  0.10550492
   0.53806142  0.10197942  0.02969037
   0.94860345  0.38486302  0.67169588
   0.82105622  0.82989113  0.19310883
Direct configuration=   645
   0.19384052  0.67845107  0.09127143
   0.54633472  0.11265575  0.06173942
   0.94055968  0.35723405  0.66851310
   0.81926507  0.85165913  0.17847605
Direct configuration=   650
   0.19438957  0.67347836  0.07987176
   0.54016051  0.13926969  0.08484017
   0.93387983  0.33020222  0.66513845
   0.83157009  0.85704973  0.17014962
Direct configuration=   655
   0.19457640  0.66741352  0.07094323
   0.52668679  0.17434521  0.10270274
   0.92953658  0.31112200  0.66165687
   0.84920023  0.84711926  0.16469716
Direct configuration=   660
   0.19615937  0.66054401  0.06430148
   0.51338374  0.20893206  0.11756838
   0.92794152  0.30255974  0.65802459
   0.86251536  0.82796419  0.16010555
Direct configuration=   665
   0.20023415  0.65450682  0.05949878
   0.50312632  0.23803388  0.12998391
   0.92880626  0.30121000  0.65403844
   0.86783327  0.80624930  0.15647886
Direct configuration=   670
   0.20548731  0.65208785  0.05600855
   0.49724046  0.25868207  0.14046429
   0.93187457  0.30070994  0.64973576
   0.86539765  0.78852014  0.15379140
Direct configuration=   675
   0.20891357  0.65608480  0.05345953
   0.49667900  0.26915974  0.14976327
   0.93709483  0.29605759  0.64541735
   0.85731259  0.77869787  0.15135985
Direct configuration=   680
   0.20848597  0.66725193  0.05187429
   0.50127184  0.26985549  0.15834101
   0.94427758  0.28619753  0.64127437
   0.84596460  0.77669505  0.14851033
Direct configuration=   685
   0.20434760  0.68357044  0.05183081
   0.50932211  0.26354572  0.16598957
   0.95286957  0.27336233  0.63712320
   0.83346072  0.77952150  0.14505643
Direct configuration=   690
   0.19760341  0.70182640  0.05405729
   0.51857811  0.25399042  0.17226521
   0.96213040  0.26071931  0.63253567
   0.82168808  0.78346387  0.14114183
Direct configuration=   695
   0.18908148  0.71929200  0.05897380
   0.52712929  0.24466798  0.17705110
   0.97139841  0.25064390  0.62707163
   0.81239082  0.78539611  0.13690347
Direct configuration=   700
   0.17928952  0.73433621  0.06667294
   0.53351549  0.23842317  0.18063709
   0.98019031  0.24429720  0.62038717
   0.80700467  0.78294342  0.13230280
Direct configuration=   705
   0.16895192  0.74627001  0.07697959
   0.53687886  0.23694354  0.18347985
   0.98814768  0.24191230  0.61233708
   0.80602153  0.77487415  0.12720347
Direct configuration=   710
   0.15952763  0.75509447  0.08924649
   0.53725820  0.23995094  0.18591256
   0.99498745  0.24303235  0.60325148
   0.80822671  0.76192224  0.12158947
Direct configuration=   715
   0.15330935  0.76130794  0.10208537
   0.53533055  0.24545257  0.18806199
   0.00043475  0.24666128  0.59425767
   0.81092535  0.74657821  0.11559497
Direct configuration=   720
   0.15239222  0.76573941  0.11361296
   0.53175632  0.25103019  0.18995527
   0.00423989  0.25152895  0.58718849
   0.81161157  0.73170145  0.10924328
Direct configuration=   725
   0.15702175  0.76930596  0.12219338
   0.52683448  0.25476423  0.19162722
   0.00625495  0.25636438  0.58377548
   0.80988883  0.71956543  0.10240393
Direct configuration=   730
   0.16534510  0.77273230  0.12704462
   0.52061662  0.25553456  0.19313201
   0.00654612  0.26014596  0.58469527
   0.80749216  0.71158718  0.09512810
Direct configuration=   735
   0.17480999  0.77642094  0.12840442
   0.51320906  0.25313705  0.19446355
   0.00545868  0.26230775  0.58926632
   0.80652227  0.70813427  0.08786571
Direct configuration=   740
   0.18330711  0.78038410  0.12719377
   0.50500116  0.24824363  0.19549988
   0.00354563  0.26278033  0.59588930
   0.80814610  0.70859194  0.08141704
Direct configuration=   745
   0.18941860  0.78415305  0.12446661
   0.49666278  0.24212126  0.19605408
   0.00141707  0.26184861  0.60270078
   0.81250155  0.71187708  0.07677854
Direct configuration=   750
   0.19231264  0.78675285  0.12103791
   0.48896587  0.23629573  0.19598713
   0.99964161  0.25995636  0.60803085
   0.81907988  0.71699506  0.07494411
Direct configuration=   755
   0.19181429  0.78692108  0.11741225
   0.48258854  0.23224218  0.19527231
   0.99865764  0.25760286  0.61065434
   0.82693953  0.72323388  0.07666110
Direct configuration=   760
   0.18872493  0.78361941  0.11389580
   0.47789290  0.23100407  0.19395922
   0.99870804  0.25532983  0.60998442
   0.83467413  0.73004668  0.08216056
Direct configuration=   765
   0.18502745  0.77651525  0.11067623
   0.47484942  0.23289031  0.19210285
   0.99981905  0.25366386  0.60625859
   0.84030408  0.73693057  0.09096233
Direct configuration=   770
   0.18319810  0.76602824  0.10773620
   0.47320162  0.23752395  0.18974597
   0.00185471  0.25291721  0.60056439
   0.84174556  0.74353061  0.10195344
Direct configuration=   775
   0.18450127  0.75311746  0.10475634
   0.47272604  0.24407067  0.18695034
   0.00464733  0.25294975  0.59451211
   0.83812535  0.74986211  0.11378120
Direct configuration=   780
   0.18788944  0.73923390  0.10127123
   0.47339411  0.25135849  0.18385019
   0.00807984  0.25310566  0.58964643
   0.83063660  0.75630194  0.12523215
Direct configuration=   785
   0.19091437  0.72628008  0.09691974
   0.47536646  0.25796286  0.18067889
   0.01207339  0.25237931  0.58696780
   0.82164579  0.76337775  0.13543357
Direct configuration=   790
   0.19136497  0.71612379  0.09156326
   0.47883018  0.26257778  0.17769104
   0.01654830  0.24973214  0.58679256
   0.81325655  0.77156628  0.14395314
Direct configuration=   795
   0.18811848  0.70986315  0.08542516
   0.48370950  0.26466141  0.17501446
   0.02136338  0.24440736  0.58884721
   0.80680864  0.78106808  0.15071317
Direct configuration=   800
   0.18123774  0.70754944  0.07927935
   0.48949385  0.26481195  0.17256651
   0.02625471  0.23609404  0.59238733
   0.80301370  0.79154457  0.15576681
Direct configuration=   805
   0.17172242  0.70836898  0.07446578
   0.49536689  0.26456155  0.17011153
   0.03081429  0.22507288  0.59629315
   0.80209640  0.80199659  0.15912954
Direct configuration=   810
   0.16125245  0.71072524  0.07259773
   0.50052035  0.26583238  0.16739089
   0.03453735  0.21247893  0.59928126
   0.80368985  0.81096345  0.16073012
Direct configuration=   815
   0.15212957  0.71212521  0.07500266
   0.50439604  0.27035936  0.16421196
   0.03693312  0.20041881  0.60034501
   0.80654127  0.81709662  0.16044037
Direct configuration=   820
   0.14704996  0.70961305  0.08206015
   0.50673238  0.27925852  0.16046113
   0.03766240  0.19142076  0.59939535
   0.80855526  0.81970768  0.15808337
Direct configuration=   825
   0.14813834  0.70125398  0.09287253
   0.50743830  0.29288808  0.15606923
   0.03656928  0.18702180  0.59773997
   0.80785408  0.81883614  0.15331826
Direct configuration=   830
   0.15552731  0.68763615  0.10572329
   0.50647420  0.31075799  0.15098972
   0.03355771  0.18658065  0.59765984
   0.80444078  0.81502521  0.14562716
Direct configuration=   835
   0.16710764  0.67187861  0.11893528
   0.50390792  0.33114930  0.14519100