 running on    4 nodes
 distr:  one band on    1 nodes,    4 groups
 md.x 0.99
 POSCAR found :  0 types and        0 ions

Program received signal SIGFPE: Floating-point exception - erroneous arithmetic operation.

Backtrace for this error:

Program received signal SIGFPE: Floating-point exception - erroneous arithmetic operation.

Backtrace for this error:
Rc and Rl:   5.500000  7.321000
 TIPO = eam     
 TIPO1 = uknown p
 Using EAM

 EAM parameters: 
 C  =   9.9634  EPS  = 0.2048  A  = 3.5678  M  = 3.127  N  =  6.366  R1 =   5.500000


Program received signal SIGFPE: Floating-point exception - erroneous arithmetic operation.

Backtrace for this error:

 ----------------------------------------------------------------------------- 
|                                                                             |
|           W    W    AA    RRRRR   N    N  II  N    N   GGGG   !!!           |
|           W    W   A  A   R    R  NN   N  II  NN   N  G    G  !!!           |
|           W    W  A    A  R    R  N N  N  II  N N  N  G       !!!           |
|           W WW W  AAAAAA  RRRRR   N  N N  II  N  N N  G  GGG   !            |
|           WW  WW  A    A  R   R   N   NN  II  N   NN  G    G                |
|           W    W  A    A  R    R  N    N  II  N    N   GGGG   !!!           |
|                                                                             |
|      VASP found     -3 degrees of freedom                                   |
|      the temperature will equal 2*E(kin)/ (degrees of freedom)              |
|      this differs from previous releases, where T was 2*E(kin)/(3 NIONS).   |
|      The new definition is more consistent                                  |
|                                                                             |
 ----------------------------------------------------------------------------- 

 alloco spazio per displ

Program received signal SIGFPE: Floating-point exception - erroneous arithmetic operation.

Backtrace for this error:
#0  0x7eff62691d11 in ???
#1  0x7eff62690ee5 in ???
#0  0x7f112b14fd11 in ???
#1  0x7f112b14eee5 in ???
#0  0x7ff5ce269d11 in ???
#1  0x7ff5ce268ee5 in ???
#2  0x7f112ae0508f in ???
	at /build/glibc-B3wQXB/glibc-2.31/signal/../sysdeps/unix/sysv/linux/x86_64/sigaction.c:0
#3  0x555dce7e5b52 in ???
#4  0x555dce73d6d0 in ???
#5  0x555dce73292e in ???
#2  0x7ff5cdf1f08f in ???
	at /build/glibc-B3wQXB/glibc-2.31/signal/../sysdeps/unix/sysv/linux/x86_64/sigaction.c:0
#3  0x55f49a834b52 in ???
#4  0x55f49a78c6d0 in ???
#5  0x55f49a78192e in ???
#2  0x7eff6234708f in ???
	at /build/glibc-B3wQXB/glibc-2.31/signal/../sysdeps/unix/sysv/linux/x86_64/sigaction.c:0
#3  0x5609aff01b52 in ???
#4  0x5609afe596d0 in ???
#5  0x5609afe4e92e in ???
#6  0x7ff5cdf00082 in __libc_start_main
	at ../csu/libc-start.c:308
#7  0x55f49a78196d in ???
#8  0xffffffffffffffff in ???
#6  0x7eff62328082 in __libc_start_main
	at ../csu/libc-start.c:308
#7  0x5609afe4e96d in ???
#8  0xffffffffffffffff in ???
#6  0x7f112ade6082 in __libc_start_main
	at ../csu/libc-start.c:308
#7  0x555dce73296d in ???
#8  0xffffffffffffffff in ???
#0  0x7f89bd2a8d11 in ???
#1  0x7f89bd2a7ee5 in ???
#2  0x7f89bcf5e08f in ???
	at /build/glibc-B3wQXB/glibc-2.31/signal/../sysdeps/unix/sysv/linux/x86_64/sigaction.c:0
#3  0x55bc96dfdb52 in ???
#4  0x55bc96d556d0 in ???
#5  0x55bc96d4a92e in ???
#6  0x7f89bcf3f082 in __libc_start_main
	at ../csu/libc-start.c:308
#7  0x55bc96d4a96d in ???
#8  0xffffffffffffffff in ???
--------------------------------------------------------------------------
Primary job  terminated normally, but 1 process returned
a non-zero exit code. Per user-direction, the job has been aborted.
--------------------------------------------------------------------------
--------------------------------------------------------------------------
mpirun noticed that process rank 0 with PID 0 on node Sam exited on signal 8 (Floating point exception).
--------------------------------------------------------------------------
