 running on    1 nodes
 distr:  one band on    1 nodes,    1 groups
