Direct configuration=     5
   0.01766503  0.00037137  0.13959550
   0.46665145  0.18769616  0.79550845
   0.17033286  0.52129047  0.48821773
   0.84535066  0.29064199  0.57667833
Direct configuration=    10
   0.03149194  0.98006163  0.12190304
   0.48476842  0.18462350  0.81226934
   0.15792351  0.58813052  0.52735289
   0.82581614  0.24718434  0.53847475
Direct configuration=    15
   0.04491084  0.97224853  0.07330577
   0.49829707  0.18241770  0.82965832
   0.15360816  0.63015318  0.58421080
   0.80318393  0.21518058  0.51282512
Direct configuration=    20
   0.05196944  0.99077252  0.03386169
   0.50304416  0.18090487  0.85018421
   0.15650028  0.63695498  0.62724046
   0.78848614  0.19136762  0.48871366
Direct configuration=    25
   0.05048444  0.04102041  0.03319868
   0.49910069  0.18025272  0.87542115
   0.16702456  0.60542892  0.62952091
   0.78339032  0.17329794  0.46185926
Direct configuration=    30
   0.04904561  0.09616516  0.04919180
   0.48971579  0.17991458  0.90189299
   0.17904285  0.56345809  0.61063098
   0.78219576  0.16046217  0.43828424
Direct configuration=    35
   0.05396135  0.13325266  0.06267556
   0.47771991  0.17886370  0.92516372
   0.18909367  0.53553131  0.58586268
   0.77922508  0.15235233  0.42629805
Direct configuration=    40
   0.06406436  0.14817265  0.06785481
   0.46462991  0.17634462  0.94358068
   0.19806990  0.52808498  0.56172803
   0.77323585  0.14739774  0.42683650
Direct configuration=    45
   0.07505405  0.14373954  0.06375243
   0.45145064  0.17181616  0.95749138
   0.20723770  0.53987913  0.54388501
   0.76625762  0.14456515  0.43487118
Direct configuration=    50
   0.08371362  0.12641620  0.05301780
   0.43969675  0.16508565  0.96761046
   0.21655095  0.56515136  0.53384791
   0.76003869  0.14334678  0.44552384
Direct configuration=    55
   0.08823392  0.10511432  0.04025479
   0.43148936  0.15676933  0.97461561
   0.22518101  0.59499054  0.52916645
   0.75509572  0.14312580  0.45596315
Direct configuration=    60
   0.08759133  0.08724626  0.02863258
   0.42823494  0.14835626  0.97929855
   0.23283168  0.62118106  0.52711307
   0.75134206  0.14321641  0.46495581
Direct configuration=    65
   0.08242192  0.07659627  0.01937485
   0.42919056  0.14138958  0.98267362
   0.23981429  0.63890251  0.52577962
   0.74857324  0.14311163  0.47217192
Direct configuration=    70
   0.07504339  0.07367162  0.01272371
   0.43198261  0.13668318  0.98568193
   0.24636009  0.64710213  0.52391285
   0.74661392  0.14254306  0.47768152
Direct configuration=    75
   0.06803545  0.07687839  0.00834331
   0.43431603  0.13426801  0.98886721
   0.25234295  0.64741573  0.52105541
   0.74530559  0.14143786  0.48173408
Direct configuration=    80
   0.06312234  0.08394771  0.00556422
   0.43491804  0.13366487  0.99234564
   0.25748438  0.64250896  0.51740483
   0.74447525  0.13987846  0.48468532
Direct configuration=    85
   0.06096025  0.09288252  0.00370055
   0.43353189  0.13412225  0.99595696
   0.26156677  0.63495327  0.51340980
   0.74394109  0.13804195  0.48693270
Direct configuration=    90
   0.06133453  0.10224103  0.00222998
   0.43062739  0.13478767  0.99941975
   0.26448121  0.62683698  0.50951487
   0.74355688  0.13613431  0.48883541
Direct configuration=    95
   0.06343362  0.11107057  0.00082671
   0.42713193  0.13484928  0.00242859
   0.26619315  0.61974371  0.50609180
   0.74324131  0.13433643  0.49065291
Direct configuration=   100
   0.06612976  0.11876990  0.99933069
   0.42416979  0.13369616  0.00471736
   0.26672435  0.61475239  0.50342574
   0.74297611  0.13278153  0.49252622
