     7.091058    0.000000    0.000000
     0.000000    3.545529    0.000000
     0.000000    0.000000    3.545529
   Al
     4
Direct configuration=     5
   0.02865341  0.97610745  0.89573370
   0.46247838  0.01180739  0.98340388
   0.30791814  0.49092266  0.49985720
   0.70095008  0.52116250  0.62100521
Direct configuration=    10
   0.03976528  0.97835758  0.88452855
   0.46014378  0.01173816  0.99728861
   0.28672248  0.49896190  0.49826454
   0.71336846  0.51094237  0.61991830
Direct configuration=    15
   0.05325987  0.98174855  0.87463131
   0.45569390  0.01104160  0.01181140
   0.26787513  0.50696646  0.49547853
   0.72317110  0.50024339  0.61807876
Direct configuration=    20
   0.06816147  0.98700375  0.86906123
   0.44876287  0.01024145  0.02465124
   0.25227904  0.51329589  0.48991706
   0.73079662  0.48945891  0.61637047
Direct configuration=    25
   0.08230206  0.99507069  0.87141115
   0.43997178  0.00958765  0.03464053
   0.24066849  0.51653023  0.47875710
   0.73705768  0.47881144  0.61519123
Direct configuration=    30
   0.09282092  0.00586377  0.88354521
   0.43149941  0.00915930  0.04147035
   0.23297550  0.51651296  0.46041734
   0.74270417  0.46846398  0.61456709
Direct configuration=    35
   0.09691321  0.01765938  0.90330957
   0.42692806  0.00894383  0.04524609
   0.22792184  0.51493605  0.43709728
   0.74823690  0.45846074  0.61434706
Direct configuration=    40
   0.09320320  0.02846720  0.92543555
   0.42892866  0.00883672  0.04572216
   0.22391062  0.51397584  0.41457948
   0.75395752  0.44872025  0.61426282
Direct configuration=    45
   0.08320753  0.03680818  0.94459166
   0.43650889  0.00879978  0.04214712
   0.22019614  0.51526696  0.39932101
   0.76008744  0.43912508  0.61394021
Direct configuration=    50
   0.07017422  0.04157744  0.95746515
   0.44603156  0.00896231  0.03429645
   0.21694385  0.51977762  0.39537058
   0.76685037  0.42968263  0.61286782
Direct configuration=    55
   0.05686857  0.04244305  0.96369497
   0.45435246  0.00942077  0.02289264
   0.21431100  0.52738283  0.40304299
   0.77446797  0.42075335  0.61036940
Direct configuration=    60
   0.04517399  0.03967716  0.96562056
   0.45993625  0.01014859  0.00905817
   0.21189577  0.53687251  0.41983275
   0.78299400  0.41330175  0.60548852
Direct configuration=    65
   0.03644153  0.03332497  0.96688146
   0.46235314  0.01110332  0.99390464
   0.20899836  0.54663374  0.44225769
   0.79220698  0.40893797  0.59695621
Direct configuration=    70
   0.03141486  0.02328746  0.97096133
   0.46168005  0.01233102  0.97830633
   0.20507393  0.55499934  0.46717970
   0.80183115  0.40938218  0.58355265
Direct configuration=    75
   0.02984558  0.01046925  0.98013591
   0.45821623  0.01396924  0.96285274
   0.20007594  0.56012226  0.49209061
   0.81186225  0.41543925  0.56492074
Direct configuration=    80
   0.03047861  0.99740027  0.99507842
   0.45239225  0.01618718  0.94788804
   0.19470979  0.56001168  0.51495463
   0.82241935  0.42640087  0.54207890
Direct configuration=    85
   0.03172233  0.98716280  0.01495571
   0.44474605  0.01911417  0.93364842
   0.19052608  0.55320884  0.53432658
   0.83300555  0.44051420  0.51706929
Direct configuration=    90
   0.03256266  0.98159574  0.03737042
   0.43584727  0.02275939  0.92045043
   0.18953110  0.53973064  0.54991929
   0.84205897  0.45591422  0.49225987
Direct configuration=    95
   0.03306216  0.98050712  0.05858777
   0.42624572  0.02691344  0.90884196
   0.19305389  0.52121255  0.56265491
   0.84763824  0.47136689  0.46991536
Direct configuration=   100
   0.03413265  0.98245069  0.07491201
   0.41660500  0.03074453  0.89988209
   0.20035608  0.50041263  0.57317014
   0.84890627  0.48639215  0.45203576
Direct configuration=     5
   0.01766503  0.00037137  0.13959550
   0.46665145  0.18769616  0.79550845
   0.17033286  0.52129047  0.48821773
   0.84535066  0.29064199  0.57667833
Direct configuration=    10
   0.03149194  0.98006163  0.12190304
   0.48476842  0.18462350  0.81226934
   0.15792351  0.58813052  0.52735289
   0.82581614  0.24718434  0.53847475
Direct configuration=    15
   0.04491084  0.97224853  0.07330577
   0.49829707  0.18241770  0.82965832
   0.15360816  0.63015318  0.58421080
   0.80318393  0.21518058  0.51282512
Direct configuration=    20
   0.05196944  0.99077252  0.03386169
   0.50304416  0.18090487  0.85018421
   0.15650028  0.63695498  0.62724046
   0.78848614  0.19136762  0.48871366
Direct configuration=    25
   0.05048444  0.04102041  0.03319868
   0.49910069  0.18025272  0.87542115
   0.16702456  0.60542892  0.62952091
   0.78339032  0.17329794  0.46185926
Direct configuration=    30
   0.04904561  0.09616516  0.04919180
   0.48971579  0.17991458  0.90189299
   0.17904285  0.56345809  0.61063098
   0.78219576  0.16046217  0.43828424
Direct configuration=    35
   0.05396135  0.13325266  0.06267556
   0.47771991  0.17886370  0.92516372
   0.18909367  0.53553131  0.58586268
   0.77922508  0.15235233  0.42629805
Direct configuration=    40
   0.06406436  0.14817265  0.06785481
   0.46462991  0.17634462  0.94358068
   0.19806990  0.52808498  0.56172803
   0.77323585  0.14739774  0.42683650
Direct configuration=    45
   0.07505405  0.14373954  0.06375243
   0.45145064  0.17181616  0.95749138
   0.20723770  0.53987913  0.54388501
   0.76625762  0.14456515  0.43487118
Direct configuration=    50
   0.08371362  0.12641620  0.05301780
   0.43969675  0.16508565  0.96761046
   0.21655095  0.56515136  0.53384791
   0.76003869  0.14334678  0.44552384
Direct configuration=    55
   0.08823392  0.10511432  0.04025479
   0.43148936  0.15676933  0.97461561
   0.22518101  0.59499054  0.52916645
   0.75509572  0.14312580  0.45596315
Direct configuration=    60
   0.08759133  0.08724626  0.02863258
   0.42823494  0.14835626  0.97929855
   0.23283168  0.62118106  0.52711307
   0.75134206  0.14321641  0.46495581
Direct configuration=    65
   0.08242192  0.07659627  0.01937485
   0.42919056  0.14138958  0.98267362
   0.23981429  0.63890251  0.52577962
   0.74857324  0.14311163  0.47217192
Direct configuration=    70
   0.07504339  0.07367162  0.01272371
   0.43198261  0.13668318  0.98568193
   0.24636009  0.64710213  0.52391285
   0.74661392  0.14254306  0.47768152
Direct configuration=    75
   0.06803545  0.07687839  0.00834331
   0.43431603  0.13426801  0.98886721
   0.25234295  0.64741573  0.52105541
   0.74530559  0.14143786  0.48173408
Direct configuration=    80
   0.06312234  0.08394771  0.00556422
   0.43491804  0.13366487  0.99234564
   0.25748438  0.64250896  0.51740483
   0.74447525  0.13987846  0.48468532
Direct configuration=    85
   0.06096025  0.09288252  0.00370055
   0.43353189  0.13412225  0.99595696
   0.26156677  0.63495327  0.51340980
   0.74394109  0.13804195  0.48693270
Direct configuration=    90
   0.06133453  0.10224103  0.00222998
   0.43062739  0.13478767  0.99941975
   0.26448121  0.62683698  0.50951487
   0.74355688  0.13613431  0.48883541
Direct configuration=    95
   0.06343362  0.11107057  0.00082671
   0.42713193  0.13484928  0.00242859
   0.26619315  0.61974371  0.50609180
   0.74324131  0.13433643  0.49065291
Direct configuration=   100
   0.06612976  0.11876990  0.99933069
   0.42416979  0.13369616  0.00471736
   0.26672435  0.61475239  0.50342574
   0.74297611  0.13278153  0.49252622
